# vtk DataFile Version 2.0
classy_blocks debug output
ASCII

DATASET UNSTRUCTURED_GRID
POINTS 34 float
0.0 0.0 0.0
0.0 0.0 7.0
0.0 -5.47673875 5.47673875
0.0 -7.0 0.0
5.0 0.0 0.0
5.0 0.0 7.0
5.0 -5.47673875 5.47673875
5.0 -7.0 0.0
0.0 -1.0688657313151827e-15 -6.999999999999998
0.0 -5.476738750000002 -5.47673875
5.0 -1.0688657313151827e-15 -6.999999999999998
5.0 -5.476738750000002 -5.47673875
0.0 5.476738750000002 -5.47673875
0.0 7.000000000000001 -2.174870349517527e-15
5.0 5.476738750000002 -5.47673875
5.0 7.000000000000001 -2.174870349517527e-15
0.0 5.476738749999999 5.476738749999997
5.0 5.476738749999999 5.476738749999997
0.0 0.0 10.0
0.0 -7.071067811865475 7.0710678118654755
5.0 0.0 10.0
5.0 -7.071067811865475 7.0710678118654755
0.0 -10.0 0.0
5.0 -10.0 0.0
0.0 -7.071067811865477 -7.071067811865475
5.0 -7.071067811865477 -7.071067811865475
0.0 -1.5269510447359755e-15 -9.999999999999998
5.0 -1.5269510447359755e-15 -9.999999999999998
0.0 7.071067811865477 -7.071067811865475
5.0 7.071067811865477 -7.071067811865475
0.0 10.000000000000002 -3.106957642167896e-15
5.0 10.000000000000002 -3.106957642167896e-15
0.0 7.071067811865474 7.071067811865471
5.0 7.071067811865474 7.071067811865471

CELLS 12 108
8 0 1 2 3 4 5 6 7
8 8 0 3 9 10 4 7 11
8 12 13 0 8 14 15 4 10
8 13 16 1 0 15 17 5 4
8 1 18 19 2 5 20 21 6
8 2 19 22 3 6 21 23 7
8 3 22 24 9 7 23 25 11
8 9 24 26 8 11 25 27 10
8 8 26 28 12 10 27 29 14
8 12 28 30 13 14 29 31 15
8 13 30 32 16 15 31 33 17
8 16 32 18 1 17 33 20 5

CELL_TYPES 12
12
12
12
12
12
12
12
12
12
12
12
12

CELL_DATA 12
SCALARS block_ids float 1
LOOKUP_TABLE default
0
1
2
3
4
5
6
7
8
9
10
11
