/*--------------------------------*- C++ -*----------------------------------*\
| =========                 |                                                 |
| \\      /  F ield         | OpenFOAM                                       |
|  \\    /   O peration     | Version:  v2312                               |
|   \\  /    A nd           | Website:  www.openfoam.com                    |
|    \\/     M anipulation  |                                               |
\*---------------------------------------------------------------------------*/
FoamFile
{
    version     2.0;
    format      ascii;
    class       volVectorField;
    location    "0";
    object      F;
}
// * * * * * * * * * * * * * * * * * * * * * * * * * * * * * * * * * * * * * //

dimensions      [0 1 -2 0 0 0 0]; // TODO I just made it into acceleration, maybe should be fixed later

internalField   nonuniform List<vector>
400                                   // Number of cells
(
        (-2.1152566473961887 -2.1224292158603033 0.0)
        (-2.319917443533214 -2.5113288078418727 0.0)
        (-2.579441439508024 -2.795725737231528 0.0)
        (-2.9306218891292755 -2.961955239466554 0.0)
        (-3.2628014334741096 -2.7227163253329336 0.0)
        (-3.5934088417858554 -2.2708357836067803 0.0)
        (-4.031100429018071 -1.8493808377574967 0.0)
        (-4.212238655079373 -1.4506397349402036 0.0)
        (-3.530411969186712 -1.0515803689008747 0.0)
        (-3.0289670542759186 -0.755564168724663 0.0)
        (-2.7095586258711366 -0.6158633979605216 0.0)
        (-2.6655141081808136 -0.5348284663542587 0.0)
        (-2.4132010656442837 -0.41041891739644887 0.0)
        (-2.010965016757799 -0.21496050957926072 0.0)
        (-1.5436947029383299 -0.06250879573036805 0.0)
        (-1.1696907541013806 0.05752621319021922 0.0)
        (-0.8319111107683428 0.025129358778861688 0.0)
        (-0.5182224483935829 0.013545378314289147 0.0)
        (-0.2184201950684046 -0.006096541861118077 0.0)
        (-0.023579047638037753 -0.02060422300822129 0.0)
        (-2.272848196397157 -2.117956201489805 0.0)
        (-2.690910774511599 -2.6887917249029707 0.0)
        (-3.2928535479279146 -3.3021945237227612 0.0)
        (-3.5729385898470465 -3.3834594954712065 0.0)
        (-3.475139971750216 -2.852366589312013 0.0)
        (-3.381695125321393 -2.3167253376163535 0.0)
        (-4.220826961438645 -2.389603055644857 0.0)
        (-4.578493201640243 -2.16757508572084 0.0)
        (-4.1014475203914715 -1.6886568787374605 0.0)
        (-3.0669799727022276 -1.146416273166194 0.0)
        (-2.8282011640618983 -0.9662556014170941 0.0)
        (-3.0756024449036103 -1.00058627315857 0.0)
        (-2.9530673182562692 -0.8465879219431096 0.0)
        (-2.371027194715124 -0.6515302615245081 0.0)
        (-1.63072122749789 -0.40507544169948173 0.0)
        (-1.3352437814887197 -0.3222785558432457 0.0)
        (-1.049769825478105 -0.2892355735262573 0.0)
        (-0.6670679919146001 -0.3197531949913377 0.0)
        (-0.2612061488665338 -0.2705784950752059 0.0)
        (-0.011566572563936672 -0.19669679819901975 0.0)
        (-2.3946113353249454 -2.2395100609857184 0.0)
        (-3.0262734761521424 -3.017753033266782 0.0)
        (-3.6867898098604233 -3.6818229528939375 0.0)
        (-3.4972976804282485 -3.3179595086423648 0.0)
        (-2.9261432860589345 -2.5216009215376882 0.0)
        (-2.6585028456050734 -2.0243667427940437 0.0)
        (-3.5820241723731527 -2.3784182778570706 0.0)
        (-4.499470310527889 -2.5754036069875825 0.0)
        (-3.6535024216097947 -1.900100011505305 0.0)
        (-1.8608029109512259 -0.9111513587776279 0.0)
        (-1.8499027791411056 -0.8230866254986711 0.0)
        (-2.8739914622350877 -1.2585944048584672 0.0)
        (-3.042084616991545 -1.2949766495706279 0.0)
        (-2.174670479363359 -0.9146453302467481 0.0)
        (-1.2276351152726046 -0.5668462750423127 0.0)
        (-1.173577269014935 -0.592801112251153 0.0)
        (-1.1119044428114704 -0.7722854664421834 0.0)
        (-0.7575638110576051 -0.7602627974617735 0.0)
        (-0.2801041108362543 -0.5770826514417497 0.0)
        (0.018858125531582504 -0.43314073080826243 0.0)
        (-2.222512661583713 -2.2440406074751396 0.0)
        (-2.66896020670524 -2.8204486520504317 0.0)
        (-3.1024201564706466 -3.2733622515954672 0.0)
        (-2.7745612881646875 -2.7890721451761844 0.0)
        (-1.0585034952816854 -0.9593754087051607 0.0)
        (0.14970211772595743 0.1234080777587866 0.0)
        (-0.13432199954907897 -0.0997465422873568 0.0)
        (-0.286322875327758 -0.1931452381329849 0.0)
        (0.41809650800558606 0.260948850804532 0.0)
        (2.286227928959785 1.3275736295017617 0.0)
        (1.8442838474484793 1.0285529420489108 0.0)
        (0.26266736440843197 0.14330061696152635 0.0)
        (-0.3504639626876096 -0.19316065000409774 0.0)
        (-0.07281119360741184 -0.043050504011954566 0.0)
        (0.048838495360670586 0.031721792668643 0.0)
        (-0.47825521018652606 -0.35620099331546373 0.0)
        (-0.8283049515872847 -0.8015102763860695 0.0)
        (-0.6752100662126659 -0.9915842114505153 0.0)
        (-0.2607429329728639 -0.8449801371760584 0.0)
        (0.05042122035385366 -0.6171744019129215 0.0)
        (-1.6960655067718144 -2.060840839434481 0.0)
        (-1.8742748481249403 -2.2478563377272556 0.0)
        (-1.6891110715827733 -1.9724535227885587 0.0)
        (-0.5323407307573446 -0.5796403307696041 0.0)
        (2.10302066874739 2.1241987087093035 0.0)
        (5.141705863259835 4.705259821118101 0.0)
        (7.627670816303105 6.35492663848493 0.0)
        (9.000177531231861 6.9765575258254096 0.0)
        (10.014744701370985 7.244318509448344 0.0)
        (9.754859083061493 6.688887964343499 0.0)
        (8.969628137295047 6.052172091248627 0.0)
        (8.282900679120372 5.582388087160145 0.0)
        (6.516349757272356 4.489491768997397 0.0)
        (5.344421382642235 3.988560846527742 0.0)
        (2.8096021404746803 2.343452770371419 0.0)
        (0.8757354051585304 0.8712744676691628 0.0)
        (-0.18469764204214567 -0.23815751396336982 0.0)
        (-0.41068525002581624 -0.8320265461225864 0.0)
        (-0.20762465309630684 -0.8610620556713844 0.0)
        (0.04147388413971553 -0.759291593305528 0.0)
        (-1.1182086188603768 -1.7755169887823148 0.0)
        (-1.2126261474325823 -1.7670639645463246 0.0)
        (-0.7015540409365619 -0.9353248814965136 0.0)
        (1.0029523443908264 1.2184938194513855 0.0)
        (4.95016284435135 5.440024264420258 0.0)
        (11.91687429361211 11.915253032138983 0.0)
        (19.86794545974431 18.166462389021603 0.0)
        (23.51870240495382 20.174557679040696 0.0)
        (23.323515115687158 18.81664997151812 0.0)
        (20.525512683361246 15.928930793098658 0.0)
        (19.189533770285674 14.71983384347932 0.0)
        (19.538371084990395 15.036222850101874 0.0)
        (18.52860220685901 15.267872335432273 0.0)
        (12.872740538534337 11.222138765443148 0.0)
        (6.664963541542813 6.742250993305436 0.0)
        (2.6541370112278804 3.1852037784574048 0.0)
        (0.4542974974226325 0.6953106823045454 0.0)
        (-0.2403646565438331 -0.530735838967267 0.0)
        (-0.190375517316284 -0.8078132525097548 0.0)
        (-0.025897080408112227 -0.7940377463996549 0.0)
        (-0.7027796553094121 -1.5544472635759243 0.0)
        (-0.9035525806852405 -1.6004895683907587 0.0)
        (-0.5461928986863708 -0.8329574867767078 0.0)
        (1.3452332643004143 1.811834977451578 0.0)
        (7.037681704649876 8.419166651680834 0.0)
        (17.78430109532941 19.49696156692971 0.0)
        (30.869519805239975 30.713150899313202 0.0)
        (40.00985925169627 37.38880368317731 0.0)
        (37.96821810059176 33.68759001579188 0.0)
        (30.341565274531515 26.20176165286497 0.0)
        (28.76340035353028 24.494007866507932 0.0)
        (32.55766375311441 28.77039710106664 0.0)
        (32.51894901620335 30.063039813777095 0.0)
        (23.431547629471865 23.27489269681336 0.0)
        (11.543968233130055 13.122992435142674 0.0)
        (4.005244643154111 5.393738573218924 0.0)
        (0.5477392001779907 0.9321101550987643 0.0)
        (-0.26755252371861094 -0.6231416625444683 0.0)
        (-0.2229827626251406 -0.8679577817271684 0.0)
        (-0.08558696683648714 -0.7874767959040792 0.0)
        (-0.409501768914106 -1.1595122830708111 0.0)
        (-0.6003536366712999 -1.2608197999680133 0.0)
        (-0.4617786465271788 -0.8006739743067877 0.0)
        (1.162573861571784 1.7344366713338493 0.0)
        (7.214368753061313 9.312814359562932 0.0)
        (19.27087531873329 22.483599951597647 0.0)
        (35.74757077477497 38.10924571389585 0.0)
        (47.19231121413924 47.0934668056273 0.0)
        (42.83113098596101 41.00851118031226 0.0)
        (35.27447405868619 32.544506837133206 0.0)
        (33.29047392460765 30.73765255567574 0.0)
        (39.3206180535037 37.42528267470068 0.0)
        (40.394345913867255 40.31858659933388 0.0)
        (29.323475883148674 31.719955764625706 0.0)
        (13.70250310719566 16.865031648788026 0.0)
        (4.896489636246719 7.030605457740508 0.0)
        (0.767663648633844 1.3637915284583852 0.0)
        (-0.2807870093695073 -0.6581492015578774 0.0)
        (-0.263895371403825 -0.8777088996664697 0.0)
        (-0.11529771834015323 -0.6859221729521061 0.0)
        (-0.18933360556767426 -0.6478591991092826 0.0)
        (-0.267713470939443 -0.6543676236986695 0.0)
        (-0.22893440100577056 -0.43617837561174233 0.0)
        (1.0747464265805347 1.758396008734635 0.0)
        (5.6450895851997895 7.885929321280108 0.0)
        (13.906987708558885 17.28076642546575 0.0)
        (26.320055701773587 29.75881728395277 0.0)
        (36.38091147745534 38.24294156097534 0.0)
        (33.751010165438885 33.81174727141624 0.0)
        (25.645207020678004 25.11259169737668 0.0)
        (25.515176887553558 24.872992075918116 0.0)
        (31.558553235800808 31.56339651833007 0.0)
        (32.26798014955603 34.194326942312976 0.0)
        (23.62559222315623 26.916582816965544 0.0)
        (11.772273787498674 15.166999090829481 0.0)
        (4.089861965323446 6.118781932479214 0.0)
        (0.7696277790192834 1.386703916458157 0.0)
        (-0.18600137204765277 -0.4292359692897467 0.0)
        (-0.18785633511195232 -0.6064287748120141 0.0)
        (-0.09380875849628717 -0.45665158982133813 0.0)
        (-0.05126513483300879 -0.1903445747871666 0.0)
        (-0.09374287447616766 -0.2526436367898192 0.0)
        (0.04139423265380099 0.08621506642849297 0.0)
        (0.3714861153354371 0.629720129134952 0.0)
        (2.1151973818213166 3.097440495746194 0.0)
        (4.649333201702088 5.911268394083281 0.0)
        (9.325394733759772 10.862587816689935 0.0)
        (13.54287942250466 14.661393174924887 0.0)
        (11.915736379945214 12.218928121820838 0.0)
        (8.404697886436953 8.414772404800779 0.0)
        (8.699711644784983 8.712560282748816 0.0)
        (10.589038321275359 10.826188061556804 0.0)
        (11.610901109361212 12.605722134160011 0.0)
        (9.179206086682905 10.773042174314927 0.0)
        (4.638237597546025 6.036928680959136 0.0)
        (1.5613006549488397 2.344012155761491 0.0)
        (0.38738613163209284 0.6867319081304749 0.0)
        (-0.04322944890545366 -0.0980679329107611 0.0)
        (-0.06805374941697939 -0.19928336177609451 0.0)
        (-0.039429741339866875 -0.17114723807857313 0.0)
        (0.04843644468987157 0.21466110164640234 0.0)
        (0.04821495605474377 0.14089957211977766 0.0)
        (0.051382299972377254 0.11402686874712376 0.0)
        (-0.431086023134182 -0.7615351618127373 0.0)
        (-1.4068953012654377 -2.128462861061763 0.0)
        (-5.076279619508881 -6.572078301281955 0.0)
        (-9.226691690525868 -10.785844848860826 0.0)
        (-11.923551049330925 -12.904359486450348 0.0)
        (-11.100088698689795 -11.375054865320266 0.0)
        (-8.702776210995026 -8.706149533876923 0.0)
        (-9.378140304277437 -9.379973727368444 0.0)
        (-11.356164517214566 -11.646625011154386 0.0)
        (-12.835962985801924 -13.82398371959982 0.0)
        (-8.860006852990615 -10.277251091309616 0.0)
        (-4.389441905102464 -5.654645833350796 0.0)
        (-1.79570661520918 -2.6814804931736833 0.0)
        (-0.3825208068098134 -0.6594394977473872 0.0)
        (0.05101032142008055 0.1078717405187325 0.0)
        (0.08378860880254368 0.22447781527331245 0.0)
        (0.0554992037340869 0.21092056557772854 0.0)
        (0.08582315663733783 0.4404685325811546 0.0)
        (0.20714698399103704 0.6650747480434516 0.0)
        (0.05198091587501624 0.12056793627020446 0.0)
        (-0.8287360196582529 -1.4802134277988581 0.0)
        (-4.136534355033909 -6.156326638409349 0.0)
        (-11.4320444584194 -14.682452149303977 0.0)
        (-23.197838887523073 -26.67718972539697 0.0)
        (-35.55457985924017 -37.46132009188213 0.0)
        (-31.3515951961828 -31.449658001520884 0.0)
        (-26.0475184028321 -25.378732312309833 0.0)
        (-26.280480470870007 -25.546503462176 0.0)
        (-36.517052589310076 -36.28792213473651 0.0)
        (-35.70836455644286 -37.53053258818514 0.0)
        (-26.582159463290207 -30.095916273284864 0.0)
        (-14.269805203607213 -17.74044463770407 0.0)
        (-5.369306546636643 -7.408771749854997 0.0)
        (-1.0174656223846619 -1.645400307272617 0.0)
        (0.26845532310260023 0.5178241765163498 0.0)
        (0.3008737528056544 0.7367648886903341 0.0)
        (0.20640571556088247 0.6799788312409316 0.0)
        (0.09543737827485896 0.6009033689208341 0.0)
        (0.21167519754316133 0.7571951650494653 0.0)
        (0.37843804791698776 0.8895776197257232 0.0)
        (-0.6485005976060422 -1.1615450814629487 0.0)
        (-4.653205289030604 -6.7233310808849165 0.0)
        (-13.491762048703068 -16.8026802004955 0.0)
        (-28.87170184088279 -31.187530716907872 0.0)
        (-41.46192371741495 -41.54863586125841 0.0)
        (-39.16681725143987 -37.15763735334774 0.0)
        (-32.378218077941106 -29.901775630657568 0.0)
        (-34.11167646632246 -31.795971072271573 0.0)
        (-42.47701301134754 -40.35024328152388 0.0)
        (-46.59385723170192 -46.21190962187243 0.0)
        (-34.890779516085246 -37.66135978961993 0.0)
        (-18.618157546520077 -21.909128554830456 0.0)
        (-7.256647661581234 -9.542332358271743 0.0)
        (-1.191825113011543 -1.7691776702268514 0.0)
        (0.6915818182714261 1.1763064465182471 0.0)
        (0.6435078776229561 1.3463213405030658 0.0)
        (0.3953560882241613 1.0995529752210285 0.0)
        (0.09516054343048591 0.7981160026637625 0.0)
        (0.23795007173047245 0.9094062321802353 0.0)
        (0.24473149991326082 0.5649890343653918 0.0)
        (-0.618455396589104 -1.0455188191519695 0.0)
        (-3.8529362185042055 -5.170332624950275 0.0)
        (-11.512699828268957 -12.953918968689223 0.0)
        (-23.031042571615473 -23.086103021144073 0.0)
        (-31.95983438211133 -29.470332203130422 0.0)
        (-33.872799911570866 -29.69311244987803 0.0)
        (-28.76516312532048 -24.591211396320595 0.0)
        (-29.711723791936954 -25.78219535536623 0.0)
        (-37.15064517647171 -32.91196684182113 0.0)
        (-40.13860175549448 -37.323257227406835 0.0)
        (-31.668448732890724 -31.44091362879885 0.0)
        (-17.930499598397034 -19.547535982052707 0.0)
        (-7.235913821777374 -8.651861390227452 0.0)
        (-1.2488189691035747 -1.6818978972930885 0.0)
        (0.7618704326699086 1.1387234855688384 0.0)
        (0.9293256645230099 1.6269173210465089 0.0)
        (0.7073661699983352 1.5293284669507035 0.0)
        (0.0308617178233079 0.7853803615795498 0.0)
        (0.19492430709888608 0.7916320319304191 0.0)
        (0.28935762486950317 0.6544441942798185 0.0)
        (-0.3437092060342614 -0.5311799287521267 0.0)
        (-2.61326094746697 -3.132306850590248 0.0)
        (-6.952807958206885 -6.95219198124245 0.0)
        (-13.508197374300769 -12.067331898595636 0.0)
        (-18.299781103630075 -15.009846819242318 0.0)
        (-20.114703680666675 -15.695479816499521 0.0)
        (-19.628050885132122 -15.115094141722487 0.0)
        (-20.164259217780565 -15.825620780004833 0.0)
        (-23.668479807019125 -19.198822893024243 0.0)
        (-24.117448161617965 -20.605412637134226 0.0)
        (-19.38374432377663 -17.867730435611577 0.0)
        (-12.134608982753297 -12.205699942293098 0.0)
        (-5.233493169249428 -5.7478292570431 0.0)
        (-1.0299366914648291 -1.232276877992838 0.0)
        (0.84209367915802 1.1076313711817405 0.0)
        (1.2290958560376277 1.7966991273531803 0.0)
        (1.1527461970558823 1.8371730382035598 0.0)
        (-0.02821053737924092 0.774821551208374 0.0)
        (0.24754517513721228 0.934111663753418 0.0)
        (0.42321467902368853 0.83843691293371 0.0)
        (0.23853659644905303 0.30391998837060213 0.0)
        (-0.8899116221987102 -0.8859230547650214 0.0)
        (-3.08227223714876 -2.5738779354770047 0.0)
        (-5.43851646849517 -4.119763042231306 0.0)
        (-6.437574578029959 -4.445317547287054 0.0)
        (-8.359714261564163 -5.611235158652824 0.0)
        (-9.700119742249585 -6.581749488445093 0.0)
        (-9.480246528604573 -6.452874536811612 0.0)
        (-9.37030348387317 -6.753436619971179 0.0)
        (-9.295384944522018 -7.118712152281005 0.0)
        (-8.075267589956795 -6.714669506705261 0.0)
        (-5.433085446177751 -4.969962527733545 0.0)
        (-1.9879585090895096 -1.961891622342342 0.0)
        (0.44425217586864446 0.48726953770505066 0.0)
        (1.71350787754682 2.007578769824072 0.0)
        (1.8105598269923189 2.198800185358976 0.0)
        (1.7532425982762605 2.101833079933691 0.0)
        (-0.04309657691254476 0.6150399858832147 0.0)
        (0.2845846294758094 0.8765999989261873 0.0)
        (0.7035608514132182 1.0696165238214135 0.0)
        (0.7767662801361435 0.7675299789647378 0.0)
        (0.5707284153086906 0.4441655183534901 0.0)
        (0.0512383730886147 0.033503608258668785 0.0)
        (0.06497017170585268 0.03785380118650926 0.0)
        (0.6814054313977818 0.37333251778176063 0.0)
        (-0.5470927894513953 -0.30383370238966084 0.0)
        (-1.9535192402901167 -1.1037005146900976 0.0)
        (-1.68240864130593 -0.9711431774629695 0.0)
        (-0.8536782548116584 -0.5377160283621925 0.0)
        (0.7946036677982808 0.5293080425340922 0.0)
        (0.0023772527559333123 0.0015487965168521078 0.0)
        (-0.09500908153247456 -0.07849150420793272 0.0)
        (1.091682590651768 1.0024875113922034 0.0)
        (2.731085386849651 2.7206968712624024 0.0)
        (3.0989104448856377 3.284637916717117 0.0)
        (2.7191224136069354 2.8957735124729473 0.0)
        (2.206999657581546 2.2282103968676337 0.0)
        (-0.014634091568563273 0.4334918538570024 0.0)
        (0.2985401643208156 0.63809943332387 0.0)
        (0.7295541907397984 0.727982740035965 0.0)
        (1.1701783282190097 0.7690162794762939 0.0)
        (1.1932444004165421 0.6189113437434945 0.0)
        (1.3397791494927314 0.5872194988425838 0.0)
        (2.054685949956685 0.9003910999499545 0.0)
        (2.932181828854247 1.2353166383427634 0.0)
        (2.7070966968675245 1.1938971589305376 0.0)
        (1.7057657087680145 0.7761829451971859 0.0)
        (1.8207273925611427 0.8924087007735172 0.0)
        (3.6601385916719233 1.8983668527642654 0.0)
        (4.533657064911233 2.602656409782967 0.0)
        (3.521882639799685 2.3468419255594632 0.0)
        (2.6673814937867513 2.0076643112857644 0.0)
        (2.9864181995384778 2.534784861263719 0.0)
        (3.728305097466368 3.5527598309423087 0.0)
        (3.738210264226358 3.7447139537698715 0.0)
        (3.0669106244742075 3.05728219382691 0.0)
        (2.382729224388553 2.2108014050877314 0.0)
        (0.002467697676791336 0.2223188571675999 0.0)
        (0.28862208183532 0.26867871002895594 0.0)
        (0.6503275906702158 0.32824988600195426 0.0)
        (1.0569957658447162 0.34671000394823653 0.0)
        (1.3327563944802172 0.32712186162557033 0.0)
        (1.640523059502346 0.39941496523762854 0.0)
        (2.3058122871276456 0.5657121688220175 0.0)
        (2.952966299170056 0.8684310618407712 0.0)
        (3.291289111868885 1.0401728347184367 0.0)
        (2.8474800343244966 0.9649211764606883 0.0)
        (3.110034565299955 1.1525604132231757 0.0)
        (4.037009323485295 1.6731646574255312 0.0)
        (4.555646762101607 2.1751187228822952 0.0)
        (4.319288077540781 2.471408040432968 0.0)
        (3.5755933133570643 2.4628694395819872 0.0)
        (3.3910935683268955 2.8096587481784248 0.0)
        (3.4091273627033543 3.223596493083515 0.0)
        (3.320881513284525 3.33176048890452 0.0)
        (2.73503336911318 2.7306253062114485 0.0)
        (2.3027855315287376 2.1358367456567833 0.0)
        (0.014988989229914249 0.019294326544558763 0.0)
        (0.2284926505306563 0.014701831662702145 0.0)
        (0.4854002608478547 -0.028811965981658888 0.0)
        (0.8376005062415253 -0.0424588898748406 0.0)
        (1.1724038552620668 -0.03764735404865409 0.0)
        (1.5928090978594964 0.0493813169673905 0.0)
        (2.0574595828672817 0.23174066102836985 0.0)
        (2.4047336447705496 0.4144121654130609 0.0)
        (2.662376335706093 0.5460993752684998 0.0)
        (2.7206452206531697 0.638090235956531 0.0)
        (2.9734123195715596 0.7741516999082927 0.0)
        (3.5461997918398938 1.0399259486778265 0.0)
        (4.023224303656293 1.4790085581805938 0.0)
        (4.070613300471434 1.8422238160270346 0.0)
        (3.7042126458287656 2.330643000913759 0.0)
        (3.259415196334137 2.7541991566172994 0.0)
        (2.9479537008017616 2.9419807243442255 0.0)
        (2.6623510667491077 2.8439807293687003 0.0)
        (2.2974841052464763 2.477274546901414 0.0)
        (2.129162257259018 2.125662684301076 0.0)
);

boundaryField
{
    walls
    {
        type            zeroGradient;
    }

    inlet
    {
        type            fixedValue;
        value           uniform 300;
    }

    outlet
    {
        type            zeroGradient;
    }
// WALLS
    fixedWalls {
        type zeroGradient;
    }
    frontAndBack {
        type empty;
    }

    coldEnd {
        type zeroGradient;
    }

    hotEnd {
        type zeroGradient;
    }
}

// ************************************************************************* //
