/*--------------------------------*- C++ -*----------------------------------*\
| =========                 |                                                 |
| \\      /  F ield         | OpenFOAM                                       |
|  \\    /   O peration     | Version:  v2312                               |
|   \\  /    A nd           | Website:  www.openfoam.com                    |
|    \\/     M anipulation  |                                               |
\*---------------------------------------------------------------------------*/
FoamFile
{
    version     2.0;
    format      ascii;
    class       volVectorField;
    location    "0";
    object      F;
}
// * * * * * * * * * * * * * * * * * * * * * * * * * * * * * * * * * * * * * //

dimensions      [0 1 -2 0 0 0 0]; // TODO I just made it into acceleration, maybe should be fixed later

internalField   nonuniform List<vector>
400                                   // Number of cells
(
        (0.0025 0.0025 0.005)
        (0.0075 0.0025 0.005)
        (0.0125 0.0025 0.005)
        (0.0175 0.0025 0.005)
        (0.0225 0.0025 0.005)
        (0.0275 0.0025 0.005)
        (0.0325 0.0025 0.005)
        (0.0375 0.0025 0.005)
        (0.0425 0.0025 0.005)
        (0.0475 0.0025 0.005)
        (0.0525 0.0025 0.005)
        (0.0575 0.0025 0.005)
        (0.0625 0.0025 0.005)
        (0.0675 0.0025 0.005)
        (0.0725 0.0025 0.005)
        (0.0775 0.0025 0.005)
        (0.0825 0.0025 0.005)
        (0.0875 0.0025 0.005)
        (0.0925 0.0025 0.005)
        (0.0975 0.0025 0.005)
        (0.0025 0.0075 0.005)
        (0.0075 0.0075 0.005)
        (0.0125 0.0075 0.005)
        (0.0175 0.0075 0.005)
        (0.0225 0.0075 0.005)
        (0.0275 0.0075 0.005)
        (0.0325 0.0075 0.005)
        (0.0375 0.0075 0.005)
        (0.0425 0.0075 0.005)
        (0.0475 0.0075 0.005)
        (0.0525 0.0075 0.005)
        (0.0575 0.0075 0.005)
        (0.0625 0.0075 0.005)
        (0.0675 0.0075 0.005)
        (0.0725 0.0075 0.005)
        (0.0775 0.0075 0.005)
        (0.0825 0.0075 0.005)
        (0.0875 0.0075 0.005)
        (0.0925 0.0075 0.005)
        (0.0975 0.0075 0.005)
        (0.0025 0.0125 0.005)
        (0.0075 0.0125 0.005)
        (0.0125 0.0125 0.005)
        (0.0175 0.0125 0.005)
        (0.0225 0.0125 0.005)
        (0.0275 0.0125 0.005)
        (0.0325 0.0125 0.005)
        (0.0375 0.0125 0.005)
        (0.0425 0.0125 0.005)
        (0.0475 0.0125 0.005)
        (0.0525 0.0125 0.005)
        (0.0575 0.0125 0.005)
        (0.0625 0.0125 0.005)
        (0.0675 0.0125 0.005)
        (0.0725 0.0125 0.005)
        (0.0775 0.0125 0.005)
        (0.0825 0.0125 0.005)
        (0.0875 0.0125 0.005)
        (0.0925 0.0125 0.005)
        (0.0975 0.0125 0.005)
        (0.0025 0.0175 0.005)
        (0.0075 0.0175 0.005)
        (0.0125 0.0175 0.005)
        (0.0175 0.0175 0.005)
        (0.0225 0.0175 0.005)
        (0.0275 0.0175 0.005)
        (0.0325 0.0175 0.005)
        (0.0375 0.0175 0.005)
        (0.0425 0.0175 0.005)
        (0.0475 0.0175 0.005)
        (0.0525 0.0175 0.005)
        (0.0575 0.0175 0.005)
        (0.0625 0.0175 0.005)
        (0.0675 0.0175 0.005)
        (0.0725 0.0175 0.005)
        (0.0775 0.0175 0.005)
        (0.0825 0.0175 0.005)
        (0.0875 0.0175 0.005)
        (0.0925 0.0175 0.005)
        (0.0975 0.0175 0.005)
        (0.0025 0.0225 0.005)
        (0.0075 0.0225 0.005)
        (0.0125 0.0225 0.005)
        (0.0175 0.0225 0.005)
        (0.0225 0.0225 0.005)
        (0.0275 0.0225 0.005)
        (0.0325 0.0225 0.005)
        (0.0375 0.0225 0.005)
        (0.0425 0.0225 0.005)
        (0.0475 0.0225 0.005)
        (0.0525 0.0225 0.005)
        (0.0575 0.0225 0.005)
        (0.0625 0.0225 0.005)
        (0.0675 0.0225 0.005)
        (0.0725 0.0225 0.005)
        (0.0775 0.0225 0.005)
        (0.0825 0.0225 0.005)
        (0.0875 0.0225 0.005)
        (0.0925 0.0225 0.005)
        (0.0975 0.0225 0.005)
        (0.0025 0.0275 0.005)
        (0.0075 0.0275 0.005)
        (0.0125 0.0275 0.005)
        (0.0175 0.0275 0.005)
        (0.0225 0.0275 0.005)
        (0.0275 0.0275 0.005)
        (0.0325 0.0275 0.005)
        (0.0375 0.0275 0.005)
        (0.0425 0.0275 0.005)
        (0.0475 0.0275 0.005)
        (0.0525 0.0275 0.005)
        (0.0575 0.0275 0.005)
        (0.0625 0.0275 0.005)
        (0.0675 0.0275 0.005)
        (0.0725 0.0275 0.005)
        (0.0775 0.0275 0.005)
        (0.0825 0.0275 0.005)
        (0.0875 0.0275 0.005)
        (0.0925 0.0275 0.005)
        (0.0975 0.0275 0.005)
        (0.0025 0.0325 0.005)
        (0.0075 0.0325 0.005)
        (0.0125 0.0325 0.005)
        (0.0175 0.0325 0.005)
        (0.0225 0.0325 0.005)
        (0.0275 0.0325 0.005)
        (0.0325 0.0325 0.005)
        (0.0375 0.0325 0.005)
        (0.0425 0.0325 0.005)
        (0.0475 0.0325 0.005)
        (0.0525 0.0325 0.005)
        (0.0575 0.0325 0.005)
        (0.0625 0.0325 0.005)
        (0.0675 0.0325 0.005)
        (0.0725 0.0325 0.005)
        (0.0775 0.0325 0.005)
        (0.0825 0.0325 0.005)
        (0.0875 0.0325 0.005)
        (0.0925 0.0325 0.005)
        (0.0975 0.0325 0.005)
        (0.0025 0.0375 0.005)
        (0.0075 0.0375 0.005)
        (0.0125 0.0375 0.005)
        (0.0175 0.0375 0.005)
        (0.0225 0.0375 0.005)
        (0.0275 0.0375 0.005)
        (0.0325 0.0375 0.005)
        (0.0375 0.0375 0.005)
        (0.0425 0.0375 0.005)
        (0.0475 0.0375 0.005)
        (0.0525 0.0375 0.005)
        (0.0575 0.0375 0.005)
        (0.0625 0.0375 0.005)
        (0.0675 0.0375 0.005)
        (0.0725 0.0375 0.005)
        (0.0775 0.0375 0.005)
        (0.0825 0.0375 0.005)
        (0.0875 0.0375 0.005)
        (0.0925 0.0375 0.005)
        (0.0975 0.0375 0.005)
        (0.0025 0.0425 0.005)
        (0.0075 0.0425 0.005)
        (0.0125 0.0425 0.005)
        (0.0175 0.0425 0.005)
        (0.0225 0.0425 0.005)
        (0.0275 0.0425 0.005)
        (0.0325 0.0425 0.005)
        (0.0375 0.0425 0.005)
        (0.0425 0.0425 0.005)
        (0.0475 0.0425 0.005)
        (0.0525 0.0425 0.005)
        (0.0575 0.0425 0.005)
        (0.0625 0.0425 0.005)
        (0.0675 0.0425 0.005)
        (0.0725 0.0425 0.005)
        (0.0775 0.0425 0.005)
        (0.0825 0.0425 0.005)
        (0.0875 0.0425 0.005)
        (0.0925 0.0425 0.005)
        (0.0975 0.0425 0.005)
        (0.0025 0.0475 0.005)
        (0.0075 0.0475 0.005)
        (0.0125 0.0475 0.005)
        (0.0175 0.0475 0.005)
        (0.0225 0.0475 0.005)
        (0.0275 0.0475 0.005)
        (0.0325 0.0475 0.005)
        (0.0375 0.0475 0.005)
        (0.0425 0.0475 0.005)
        (0.0475 0.0475 0.005)
        (0.0525 0.0475 0.005)
        (0.0575 0.0475 0.005)
        (0.0625 0.0475 0.005)
        (0.0675 0.0475 0.005)
        (0.0725 0.0475 0.005)
        (0.0775 0.0475 0.005)
        (0.0825 0.0475 0.005)
        (0.0875 0.0475 0.005)
        (0.0925 0.0475 0.005)
        (0.0975 0.0475 0.005)
        (0.0025 0.0525 0.005)
        (0.0075 0.0525 0.005)
        (0.0125 0.0525 0.005)
        (0.0175 0.0525 0.005)
        (0.0225 0.0525 0.005)
        (0.0275 0.0525 0.005)
        (0.0325 0.0525 0.005)
        (0.0375 0.0525 0.005)
        (0.0425 0.0525 0.005)
        (0.0475 0.0525 0.005)
        (0.0525 0.0525 0.005)
        (0.0575 0.0525 0.005)
        (0.0625 0.0525 0.005)
        (0.0675 0.0525 0.005)
        (0.0725 0.0525 0.005)
        (0.0775 0.0525 0.005)
        (0.0825 0.0525 0.005)
        (0.0875 0.0525 0.005)
        (0.0925 0.0525 0.005)
        (0.0975 0.0525 0.005)
        (0.0025 0.0575 0.005)
        (0.0075 0.0575 0.005)
        (0.0125 0.0575 0.005)
        (0.0175 0.0575 0.005)
        (0.0225 0.0575 0.005)
        (0.0275 0.0575 0.005)
        (0.0325 0.0575 0.005)
        (0.0375 0.0575 0.005)
        (0.0425 0.0575 0.005)
        (0.0475 0.0575 0.005)
        (0.0525 0.0575 0.005)
        (0.0575 0.0575 0.005)
        (0.0625 0.0575 0.005)
        (0.0675 0.0575 0.005)
        (0.0725 0.0575 0.005)
        (0.0775 0.0575 0.005)
        (0.0825 0.0575 0.005)
        (0.0875 0.0575 0.005)
        (0.0925 0.0575 0.005)
        (0.0975 0.0575 0.005)
        (0.0025 0.0625 0.005)
        (0.0075 0.0625 0.005)
        (0.0125 0.0625 0.005)
        (0.0175 0.0625 0.005)
        (0.0225 0.0625 0.005)
        (0.0275 0.0625 0.005)
        (0.0325 0.0625 0.005)
        (0.0375 0.0625 0.005)
        (0.0425 0.0625 0.005)
        (0.0475 0.0625 0.005)
        (0.0525 0.0625 0.005)
        (0.0575 0.0625 0.005)
        (0.0625 0.0625 0.005)
        (0.0675 0.0625 0.005)
        (0.0725 0.0625 0.005)
        (0.0775 0.0625 0.005)
        (0.0825 0.0625 0.005)
        (0.0875 0.0625 0.005)
        (0.0925 0.0625 0.005)
        (0.0975 0.0625 0.005)
        (0.0025 0.0675 0.005)
        (0.0075 0.0675 0.005)
        (0.0125 0.0675 0.005)
        (0.0175 0.0675 0.005)
        (0.0225 0.0675 0.005)
        (0.0275 0.0675 0.005)
        (0.0325 0.0675 0.005)
        (0.0375 0.0675 0.005)
        (0.0425 0.0675 0.005)
        (0.0475 0.0675 0.005)
        (0.0525 0.0675 0.005)
        (0.0575 0.0675 0.005)
        (0.0625 0.0675 0.005)
        (0.0675 0.0675 0.005)
        (0.0725 0.0675 0.005)
        (0.0775 0.0675 0.005)
        (0.0825 0.0675 0.005)
        (0.0875 0.0675 0.005)
        (0.0925 0.0675 0.005)
        (0.0975 0.0675 0.005)
        (0.0025 0.0725 0.005)
        (0.0075 0.0725 0.005)
        (0.0125 0.0725 0.005)
        (0.0175 0.0725 0.005)
        (0.0225 0.0725 0.005)
        (0.0275 0.0725 0.005)
        (0.0325 0.0725 0.005)
        (0.0375 0.0725 0.005)
        (0.0425 0.0725 0.005)
        (0.0475 0.0725 0.005)
        (0.0525 0.0725 0.005)
        (0.0575 0.0725 0.005)
        (0.0625 0.0725 0.005)
        (0.0675 0.0725 0.005)
        (0.0725 0.0725 0.005)
        (0.0775 0.0725 0.005)
        (0.0825 0.0725 0.005)
        (0.0875 0.0725 0.005)
        (0.0925 0.0725 0.005)
        (0.0975 0.0725 0.005)
        (0.0025 0.0775 0.005)
        (0.0075 0.0775 0.005)
        (0.0125 0.0775 0.005)
        (0.0175 0.0775 0.005)
        (0.0225 0.0775 0.005)
        (0.0275 0.0775 0.005)
        (0.0325 0.0775 0.005)
        (0.0375 0.0775 0.005)
        (0.0425 0.0775 0.005)
        (0.0475 0.0775 0.005)
        (0.0525 0.0775 0.005)
        (0.0575 0.0775 0.005)
        (0.0625 0.0775 0.005)
        (0.0675 0.0775 0.005)
        (0.0725 0.0775 0.005)
        (0.0775 0.0775 0.005)
        (0.0825 0.0775 0.005)
        (0.0875 0.0775 0.005)
        (0.0925 0.0775 0.005)
        (0.0975 0.0775 0.005)
        (0.0025 0.0825 0.005)
        (0.0075 0.0825 0.005)
        (0.0125 0.0825 0.005)
        (0.0175 0.0825 0.005)
        (0.0225 0.0825 0.005)
        (0.0275 0.0825 0.005)
        (0.0325 0.0825 0.005)
        (0.0375 0.0825 0.005)
        (0.0425 0.0825 0.005)
        (0.0475 0.0825 0.005)
        (0.0525 0.0825 0.005)
        (0.0575 0.0825 0.005)
        (0.0625 0.0825 0.005)
        (0.0675 0.0825 0.005)
        (0.0725 0.0825 0.005)
        (0.0775 0.0825 0.005)
        (0.0825 0.0825 0.005)
        (0.0875 0.0825 0.005)
        (0.0925 0.0825 0.005)
        (0.0975 0.0825 0.005)
        (0.0025 0.0875 0.005)
        (0.0075 0.0875 0.005)
        (0.0125 0.0875 0.005)
        (0.0175 0.0875 0.005)
        (0.0225 0.0875 0.005)
        (0.0275 0.0875 0.005)
        (0.0325 0.0875 0.005)
        (0.0375 0.0875 0.005)
        (0.0425 0.0875 0.005)
        (0.0475 0.0875 0.005)
        (0.0525 0.0875 0.005)
        (0.0575 0.0875 0.005)
        (0.0625 0.0875 0.005)
        (0.0675 0.0875 0.005)
        (0.0725 0.0875 0.005)
        (0.0775 0.0875 0.005)
        (0.0825 0.0875 0.005)
        (0.0875 0.0875 0.005)
        (0.0925 0.0875 0.005)
        (0.0975 0.0875 0.005)
        (0.0025 0.0925 0.005)
        (0.0075 0.0925 0.005)
        (0.0125 0.0925 0.005)
        (0.0175 0.0925 0.005)
        (0.0225 0.0925 0.005)
        (0.0275 0.0925 0.005)
        (0.0325 0.0925 0.005)
        (0.0375 0.0925 0.005)
        (0.0425 0.0925 0.005)
        (0.0475 0.0925 0.005)
        (0.0525 0.0925 0.005)
        (0.0575 0.0925 0.005)
        (0.0625 0.0925 0.005)
        (0.0675 0.0925 0.005)
        (0.0725 0.0925 0.005)
        (0.0775 0.0925 0.005)
        (0.0825 0.0925 0.005)
        (0.0875 0.0925 0.005)
        (0.0925 0.0925 0.005)
        (0.0975 0.0925 0.005)
        (0.0025 0.0975 0.005)
        (0.0075 0.0975 0.005)
        (0.0125 0.0975 0.005)
        (0.0175 0.0975 0.005)
        (0.0225 0.0975 0.005)
        (0.0275 0.0975 0.005)
        (0.0325 0.0975 0.005)
        (0.0375 0.0975 0.005)
        (0.0425 0.0975 0.005)
        (0.0475 0.0975 0.005)
        (0.0525 0.0975 0.005)
        (0.0575 0.0975 0.005)
        (0.0625 0.0975 0.005)
        (0.0675 0.0975 0.005)
        (0.0725 0.0975 0.005)
        (0.0775 0.0975 0.005)
        (0.0825 0.0975 0.005)
        (0.0875 0.0975 0.005)
        (0.0925 0.0975 0.005)
        (0.0975 0.0975 0.005)
);

boundaryField
{
    walls
    {
        type            zeroGradient;
    }

    inlet
    {
        type            fixedValue;
        value           uniform 300;
    }

    outlet
    {
        type            zeroGradient;
    }
// WALLS
    fixedWalls {
        type zeroGradient;
    }
    frontAndBack {
        type empty;
    }

    coldEnd {
        type zeroGradient;
    }

    hotEnd {
        type zeroGradient;
    }
}

// ************************************************************************* //
