# vtk DataFile Version 2.0
classy_blocks debug output
ASCII

DATASET UNSTRUCTURED_GRID
POINTS 34 float
0.0 0.0 0.0
0.0 0.0 1.4
0.7745278217824272 -0.7745278217824272 1.0953477500000002
0.9899494936611666 -0.9899494936611666 0.0
5.0 5.0 0.0
5.0 5.0 1.4
5.774527821782427 4.225472178217573 1.0953477500000002
5.989949493661166 4.010050506338834 0.0
1.5116044135817684e-16 -1.511604413581768e-16 -1.4
0.7745278217824269 -0.7745278217824272 -1.09534775
5.0 5.0 -1.4
5.774527821782427 4.225472178217573 -1.09534775
-0.7745278217824274 0.7745278217824275 -1.09534775
-0.9899494936611662 0.989949493661166 3.1319600439060333e-17
4.225472178217572 5.774527821782428 -1.09534775
4.010050506338834 5.989949493661166 3.1319600439060333e-17
-0.7745278217824266 0.7745278217824266 1.0953477500000002
4.225472178217573 5.774527821782427 1.0953477500000002
0.0 0.0 2.0
1.0 -1.0 1.4142135623730951
5.0 5.0 2.0
6.0 4.0 1.4142135623730951
1.4142135623730951 -1.4142135623730951 0.0
6.414213562373095 3.585786437626905 0.0
0.9999999999999996 -1.0 -1.414213562373095
6.0 4.0 -1.414213562373095
2.1594348765453835e-16 -2.1594348765453832e-16 -2.0
5.0 5.0 -2.0
-1.0000000000000002 1.0000000000000004 -1.414213562373095
4.0 6.0 -1.414213562373095
-1.4142135623730947 1.4142135623730945 4.4742286341514763e-17
3.585786437626905 6.414213562373094 4.4742286341514763e-17
-0.9999999999999993 0.9999999999999993 1.4142135623730954
4.000000000000001 5.999999999999999 1.4142135623730954

CELLS 12 108
8 0 1 2 3 4 5 6 7
8 8 0 3 9 10 4 7 11
8 12 13 0 8 14 15 4 10
8 13 16 1 0 15 17 5 4
8 1 18 19 2 5 20 21 6
8 2 19 22 3 6 21 23 7
8 3 22 24 9 7 23 25 11
8 9 24 26 8 11 25 27 10
8 8 26 28 12 10 27 29 14
8 12 28 30 13 14 29 31 15
8 13 30 32 16 15 31 33 17
8 16 32 18 1 17 33 20 5

CELL_TYPES 12
12
12
12
12
12
12
12
12
12
12
12
12

CELL_DATA 12
SCALARS block_ids float 1
LOOKUP_TABLE default
0
1
2
3
4
5
6
7
8
9
10
11
