/*--------------------------------*- C++ -*----------------------------------*\
| =========                 |                                                 |
| \\      /  F ield         | OpenFOAM: The Open Source CFD Toolbox           |
|  \\    /   O peration     | Version:  2406                                  |
|   \\  /    A nd           | Website:  www.openfoam.com                      |
|    \\/     M anipulation  |                                                 |
\*---------------------------------------------------------------------------*/
FoamFile
{
    version     2.0;
    format      ascii;
    arch        "LSB;label=32;scalar=64";
    class       volVectorField;
    location    "0";
    object      C;
}
// * * * * * * * * * * * * * * * * * * * * * * * * * * * * * * * * * * * * * //

dimensions      [0 1 0 0 0 0 0];

internalField   nonuniform List<vector> 
1136
(
(0.020198 0.00244859 0.00240155)
(0.0251867 0.00229466 0.00247605)
(0.0301601 0.0021956 0.00243931)
(0.0352059 0.00216743 0.0024349)
(0.040234 0.00215703 0.00243469)
(0.0452451 0.00215237 0.00243469)
(0.0502492 0.00215012 0.00243467)
(0.0552505 0.00214909 0.00243464)
(0.0602508 0.00214869 0.00243461)
(0.0652509 0.00214856 0.0024346)
(0.0702509 0.00214854 0.00243459)
(0.0752509 0.00214855 0.00243459)
(0.0802509 0.00214856 0.00243459)
(0.0852509 0.00214856 0.00243459)
(0.0902509 0.00214856 0.00243459)
(0.0952509 0.00214856 0.00243459)
(0.100251 0.00214856 0.00243459)
(0.105251 0.00214856 0.00243459)
(0.110251 0.00214856 0.00243459)
(0.115251 0.00214856 0.00243459)
(0.120251 0.00214855 0.00243459)
(0.125251 0.00214854 0.00243459)
(0.130251 0.00214857 0.0024346)
(0.135251 0.00214869 0.00243461)
(0.140251 0.0021491 0.00243464)
(0.145253 0.00215014 0.00243467)
(0.150257 0.00215238 0.00243469)
(0.155268 0.00215705 0.00243469)
(0.160296 0.00216745 0.00243491)
(0.165342 0.00219569 0.00243935)
(0.170315 0.00229468 0.00247605)
(0.175304 0.00244858 0.00240155)
(0.0200399 0.00744505 0.0024745)
(0.0248284 0.00709095 0.00260701)
(0.0300138 0.00697973 0.00255463)
(0.0351426 0.00693527 0.00254703)
(0.0402085 0.00691462 0.0025465)
(0.0452363 0.0069031 0.00254631)
(0.0502467 0.00689607 0.00254617)
(0.0552499 0.00689225 0.00254609)
(0.0602508 0.00689057 0.00254604)
(0.0652509 0.00689001 0.00254601)
(0.0702509 0.00688989 0.00254601)
(0.0752509 0.00688989 0.002546)
(0.0802509 0.0068899 0.002546)
(0.0852509 0.00688991 0.002546)
(0.0902509 0.00688991 0.002546)
(0.0952509 0.00688991 0.002546)
(0.100251 0.00688991 0.002546)
(0.105251 0.00688991 0.002546)
(0.110251 0.00688991 0.002546)
(0.115251 0.0068899 0.002546)
(0.120251 0.00688989 0.002546)
(0.125251 0.00688989 0.00254601)
(0.130251 0.00689002 0.00254601)
(0.135251 0.0068906 0.00254604)
(0.140252 0.00689229 0.00254609)
(0.145255 0.00689613 0.00254618)
(0.150265 0.00690317 0.00254631)
(0.155293 0.00691468 0.00254651)
(0.160359 0.00693532 0.00254703)
(0.165488 0.00697983 0.00255462)
(0.170673 0.007091 0.00260697)
(0.175462 0.00744497 0.00247451)
(0.019948 0.0124261 0.00243908)
(0.0247209 0.0123018 0.00255508)
(0.0299353 0.0122322 0.00251224)
(0.0351026 0.0121968 0.00250661)
(0.0401922 0.0121729 0.00250635)
(0.0452312 0.0121521 0.00250611)
(0.0502456 0.0121356 0.00250588)
(0.0552498 0.0121259 0.00250574)
(0.0602507 0.0121216 0.00250567)
(0.0652508 0.0121201 0.00250564)
(0.0702509 0.0121198 0.00250562)
(0.0752509 0.0121198 0.00250562)
(0.0802509 0.0121198 0.00250561)
(0.0852509 0.0121198 0.00250561)
(0.0902509 0.0121198 0.00250561)
(0.0952509 0.0121198 0.00250561)
(0.100251 0.0121198 0.00250561)
(0.105251 0.0121198 0.00250561)
(0.110251 0.0121198 0.00250561)
(0.115251 0.0121198 0.00250561)
(0.120251 0.0121198 0.00250562)
(0.125251 0.0121198 0.00250562)
(0.130251 0.0121201 0.00250564)
(0.135251 0.0121217 0.00250567)
(0.140252 0.012126 0.00250574)
(0.145256 0.0121358 0.00250588)
(0.15027 0.0121523 0.00250611)
(0.155309 0.0121731 0.00250635)
(0.160399 0.0121969 0.00250661)
(0.165566 0.0122323 0.00251224)
(0.170781 0.0123018 0.00255509)
(0.175554 0.0124261 0.00243909)
(0.0199297 0.0174988 0.00243476)
(0.0246944 0.0174947 0.00254781)
(0.0299143 0.0174853 0.00250693)
(0.0350924 0.0174663 0.0025019)
(0.0401893 0.0174331 0.00250174)
(0.0452317 0.0173887 0.0025014)
(0.0502469 0.0173493 0.00250094)
(0.0552496 0.0173276 0.00250087)
(0.0602498 0.0173185 0.00250085)
(0.0652502 0.0173155 0.00250083)
(0.0702505 0.0173149 0.00250082)
(0.0752508 0.0173149 0.00250081)
(0.0802509 0.017315 0.0025008)
(0.0852509 0.017315 0.0025008)
(0.0902509 0.017315 0.0025008)
(0.0952509 0.017315 0.0025008)
(0.100251 0.017315 0.0025008)
(0.105251 0.017315 0.0025008)
(0.110251 0.017315 0.0025008)
(0.115251 0.017315 0.0025008)
(0.120251 0.0173149 0.00250081)
(0.125251 0.017315 0.00250082)
(0.130252 0.0173156 0.00250083)
(0.135252 0.0173186 0.00250085)
(0.140252 0.0173279 0.00250087)
(0.145255 0.0173498 0.00250094)
(0.15027 0.0173892 0.00250138)
(0.155312 0.0174336 0.00250174)
(0.160409 0.0174666 0.0025019)
(0.165587 0.0174855 0.00250693)
(0.170807 0.0174948 0.00254781)
(0.175572 0.0174989 0.00243476)
(0.0199481 0.0225715 0.00243912)
(0.0247215 0.0226873 0.00255515)
(0.0299372 0.0227363 0.00251237)
(0.0351072 0.0227276 0.00250658)
(0.0402008 0.0226693 0.00250548)
(0.0452417 0.022569 0.00250344)
(0.0502539 0.0224803 0.00250029)
(0.0552473 0.0224425 0.00250043)
(0.0602455 0.0224282 0.0025006)
(0.0652472 0.022424 0.00250069)
(0.0702491 0.0224233 0.00250069)
(0.0752502 0.0224234 0.00250068)
(0.0802507 0.0224235 0.00250067)
(0.0852508 0.0224236 0.00250066)
(0.0902509 0.0224236 0.00250066)
(0.0952509 0.0224236 0.00250066)
(0.100251 0.0224236 0.00250066)
(0.105251 0.0224236 0.00250066)
(0.110251 0.0224236 0.00250066)
(0.115251 0.0224236 0.00250067)
(0.120252 0.0224234 0.00250068)
(0.125253 0.0224234 0.00250069)
(0.130254 0.0224242 0.00250069)
(0.135256 0.0224286 0.0025006)
(0.140254 0.0224431 0.00250043)
(0.145247 0.0224812 0.0025003)
(0.150259 0.02257 0.00250331)
(0.1553 0.0226704 0.00250546)
(0.160394 0.0227282 0.00250657)
(0.165564 0.0227366 0.00251236)
(0.17078 0.0226874 0.00255514)
(0.175554 0.0225716 0.00243912)
(0.0200403 0.0275529 0.00247455)
(0.0248298 0.0278992 0.00260709)
(0.030018 0.0279901 0.00255501)
(0.0351537 0.0279824 0.00254672)
(0.040239 0.0278903 0.00253793)
(0.0452857 0.0276793 0.0025212)
(0.0502934 0.0275019 0.00249364)
(0.0552385 0.0274829 0.00249838)
(0.0602311 0.0274737 0.00250016)
(0.065238 0.0274714 0.00250044)
(0.0702449 0.0274715 0.0025005)
(0.0752486 0.0274719 0.00250048)
(0.0802501 0.0274722 0.00250046)
(0.0852507 0.0274723 0.00250044)
(0.0902508 0.0274723 0.00250043)
(0.0952509 0.0274723 0.00250043)
(0.100251 0.0274723 0.00250043)
(0.105251 0.0274723 0.00250043)
(0.110251 0.0274723 0.00250044)
(0.115252 0.0274722 0.00250046)
(0.120253 0.027472 0.00250048)
(0.125257 0.0274716 0.0025005)
(0.130263 0.0274717 0.00250043)
(0.13527 0.0274742 0.00250016)
(0.140263 0.0274837 0.00249838)
(0.145209 0.0275024 0.0024938)
(0.150217 0.027679 0.00251975)
(0.155261 0.0278915 0.00253751)
(0.160347 0.0279831 0.00254661)
(0.165483 0.0279905 0.00255498)
(0.170672 0.0278994 0.00260708)
(0.175462 0.027553 0.00247455)
(0.0201985 0.0325506 0.00240158)
(0.0251885 0.0327011 0.00247622)
(0.0301663 0.0327908 0.00243996)
(0.035223 0.0327906 0.00243663)
(0.0402794 0.0327351 0.00245102)
(0.0453382 0.0325917 0.00248728)
(0.0502702 0.0324751 0.00249544)
(0.0552211 0.0324456 0.00249348)
(0.0601935 0.0324812 0.00249972)
(0.0652166 0.0324877 0.0025002)
(0.0702357 0.0324896 0.00250036)
(0.0752453 0.0324905 0.00250033)
(0.0802491 0.0324909 0.00250028)
(0.0852504 0.0324911 0.00250024)
(0.0902508 0.0324911 0.00250023)
(0.0952509 0.0324911 0.00250022)
(0.100251 0.0324911 0.00250022)
(0.105251 0.0324911 0.00250023)
(0.110251 0.0324911 0.00250024)
(0.115253 0.032491 0.00250028)
(0.120256 0.0324906 0.00250032)
(0.125266 0.0324898 0.00250036)
(0.130285 0.0324881 0.0025002)
(0.135307 0.0324818 0.00249972)
(0.14028 0.0324447 0.00249333)
(0.145235 0.0324722 0.00249543)
(0.150163 0.0325917 0.00248701)
(0.15522 0.0327358 0.00245159)
(0.160278 0.0327909 0.00243677)
(0.165335 0.0327909 0.00243999)
(0.170313 0.0327012 0.00247623)
(0.175303 0.0325506 0.00240158)
(0.0501534 0.0374067 0.0024868)
(0.0550459 0.03745 0.00251921)
(0.0601055 0.0374854 0.00250252)
(0.0651784 0.0374933 0.00250038)
(0.070221 0.0374957 0.00250035)
(0.0752402 0.0374968 0.00250026)
(0.0802475 0.0374973 0.00250018)
(0.0852499 0.0374974 0.00250013)
(0.0902507 0.0374974 0.00250011)
(0.0952509 0.0374974 0.0025001)
(0.100251 0.0374974 0.0025001)
(0.105251 0.0374974 0.00250011)
(0.110252 0.0374974 0.00250013)
(0.115254 0.0374973 0.00250018)
(0.120262 0.0374969 0.00250026)
(0.125281 0.0374959 0.00250035)
(0.130323 0.0374937 0.0025004)
(0.135395 0.0374861 0.00250264)
(0.140456 0.0374489 0.00252067)
(0.145349 0.0374069 0.00248705)
(0.0500086 0.0424544 0.00245149)
(0.0548341 0.0424693 0.00253704)
(0.0600073 0.0424897 0.00250455)
(0.0651375 0.0424959 0.00250056)
(0.0702056 0.042498 0.0025004)
(0.0752349 0.0424989 0.00250027)
(0.0802459 0.0424992 0.00250015)
(0.0852495 0.0424993 0.00250008)
(0.0902505 0.0424993 0.00250005)
(0.0952508 0.0424993 0.00250004)
(0.100251 0.0424993 0.00250004)
(0.105251 0.0424993 0.00250005)
(0.110252 0.0424993 0.00250008)
(0.115256 0.0424992 0.00250015)
(0.120267 0.0424989 0.00250027)
(0.125296 0.0424981 0.0025004)
(0.130364 0.0424963 0.00250056)
(0.135493 0.0424905 0.00250458)
(0.140666 0.0424704 0.00253748)
(0.145492 0.0424565 0.00245093)
(0.049953 0.047489 0.00243687)
(0.0547446 0.0474926 0.00254588)
(0.0599546 0.0474966 0.00250552)
(0.0651134 0.0474986 0.00250063)
(0.0701962 0.0474994 0.00250044)
(0.0752316 0.0474997 0.00250029)
(0.0802449 0.0474998 0.00250015)
(0.0852492 0.0474999 0.00250007)
(0.0902505 0.0474999 0.00250003)
(0.0952508 0.0474999 0.00250002)
(0.100251 0.0474999 0.00250002)
(0.105251 0.0474999 0.00250003)
(0.110253 0.0474999 0.00250007)
(0.115257 0.0474998 0.00250015)
(0.12027 0.0474997 0.00250029)
(0.125305 0.0474994 0.00250044)
(0.130388 0.0474987 0.00250063)
(0.135546 0.0474968 0.00250554)
(0.140756 0.047493 0.00254602)
(0.145548 0.0474894 0.0024367)
(0.049953 0.052511 0.00243687)
(0.0547446 0.0525074 0.00254588)
(0.0599546 0.0525034 0.00250552)
(0.0651134 0.0525014 0.00250063)
(0.0701962 0.0525006 0.00250044)
(0.0752316 0.0525003 0.00250029)
(0.0802449 0.0525002 0.00250015)
(0.0852492 0.0525001 0.00250007)
(0.0902505 0.0525001 0.00250003)
(0.0952508 0.0525001 0.00250002)
(0.100251 0.0525001 0.00250002)
(0.105251 0.0525001 0.00250003)
(0.110253 0.0525001 0.00250007)
(0.115257 0.0525002 0.00250015)
(0.12027 0.0525003 0.00250029)
(0.125305 0.0525006 0.00250044)
(0.130388 0.0525013 0.00250063)
(0.135546 0.0525032 0.00250554)
(0.140756 0.052507 0.00254602)
(0.145548 0.0525106 0.0024367)
(0.0500086 0.0575456 0.00245149)
(0.0548341 0.0575307 0.00253704)
(0.0600073 0.0575103 0.00250455)
(0.0651375 0.0575041 0.00250056)
(0.0702056 0.057502 0.0025004)
(0.0752349 0.0575011 0.00250027)
(0.0802459 0.0575008 0.00250015)
(0.0852495 0.0575007 0.00250008)
(0.0902505 0.0575007 0.00250005)
(0.0952508 0.0575007 0.00250004)
(0.100251 0.0575007 0.00250004)
(0.105251 0.0575007 0.00250005)
(0.110252 0.0575007 0.00250008)
(0.115256 0.0575008 0.00250015)
(0.120267 0.0575011 0.00250027)
(0.125296 0.0575019 0.0025004)
(0.130364 0.0575037 0.00250056)
(0.135493 0.0575095 0.00250458)
(0.140666 0.0575296 0.00253748)
(0.145492 0.0575435 0.00245093)
(0.0501534 0.0625933 0.0024868)
(0.0550459 0.06255 0.00251921)
(0.0601055 0.0625146 0.00250252)
(0.0651784 0.0625067 0.00250038)
(0.070221 0.0625043 0.00250035)
(0.0752402 0.0625032 0.00250026)
(0.0802475 0.0625027 0.00250018)
(0.0852499 0.0625026 0.00250013)
(0.0902507 0.0625026 0.00250011)
(0.0952509 0.0625026 0.0025001)
(0.100251 0.0625026 0.0025001)
(0.105251 0.0625026 0.00250011)
(0.110252 0.0625026 0.00250013)
(0.115254 0.0625027 0.00250018)
(0.120262 0.0625031 0.00250026)
(0.125281 0.0625041 0.00250035)
(0.130323 0.0625063 0.0025004)
(0.135395 0.0625139 0.00250264)
(0.140456 0.0625511 0.00252067)
(0.145349 0.0625931 0.00248705)
(0.0201994 0.0674485 0.00240158)
(0.025193 0.0672943 0.00247477)
(0.0301677 0.067209 0.00243984)
(0.0352238 0.0672094 0.00243649)
(0.0402798 0.067265 0.00245098)
(0.0453383 0.0674083 0.00248726)
(0.0502702 0.0675249 0.00249544)
(0.0552211 0.0675544 0.00249348)
(0.0601935 0.0675188 0.00249972)
(0.0652166 0.0675123 0.0025002)
(0.0702357 0.0675104 0.00250036)
(0.0752453 0.0675095 0.00250033)
(0.0802491 0.0675091 0.00250028)
(0.0852504 0.0675089 0.00250024)
(0.0902508 0.0675089 0.00250023)
(0.0952509 0.0675089 0.00250022)
(0.100251 0.0675089 0.00250022)
(0.105251 0.0675089 0.00250023)
(0.110251 0.0675089 0.00250024)
(0.115253 0.067509 0.00250028)
(0.120256 0.0675094 0.00250032)
(0.125266 0.0675102 0.00250036)
(0.130285 0.0675119 0.0025002)
(0.135307 0.0675182 0.00249972)
(0.14028 0.0675553 0.00249333)
(0.145235 0.0675278 0.00249543)
(0.150163 0.0674083 0.00248702)
(0.15522 0.0672642 0.00245159)
(0.160278 0.0672091 0.00243677)
(0.165335 0.0672091 0.00243999)
(0.170313 0.0672988 0.00247623)
(0.175303 0.0674494 0.00240158)
(0.0200448 0.0724427 0.00247603)
(0.0248327 0.072098 0.00260713)
(0.0300188 0.0720092 0.0025554)
(0.0351545 0.0720176 0.0025468)
(0.0402394 0.0721098 0.00253795)
(0.0452858 0.0723208 0.0025212)
(0.0502934 0.0724981 0.00249365)
(0.0552386 0.0725171 0.00249838)
(0.0602311 0.0725263 0.00250016)
(0.065238 0.0725286 0.00250044)
(0.0702449 0.0725285 0.0025005)
(0.0752486 0.0725281 0.00250048)
(0.0802501 0.0725278 0.00250046)
(0.0852507 0.0725277 0.00250044)
(0.0902508 0.0725277 0.00250043)
(0.0952509 0.0725277 0.00250043)
(0.100251 0.0725277 0.00250043)
(0.105251 0.0725277 0.00250043)
(0.110251 0.0725277 0.00250044)
(0.115252 0.0725278 0.00250046)
(0.120253 0.072528 0.00250048)
(0.125257 0.0725284 0.0025005)
(0.130263 0.0725283 0.00250043)
(0.13527 0.0725258 0.00250016)
(0.140263 0.0725163 0.00249838)
(0.145209 0.0724976 0.0024938)
(0.150217 0.072321 0.00251975)
(0.155262 0.0721085 0.00253751)
(0.160347 0.0720169 0.00254661)
(0.165483 0.0720095 0.00255498)
(0.170672 0.0721006 0.00260708)
(0.175462 0.072447 0.00247455)
(0.0199482 0.0774275 0.00243924)
(0.0247222 0.0773123 0.00255474)
(0.0299377 0.0772634 0.00251237)
(0.0351076 0.0772724 0.0025066)
(0.040201 0.0773307 0.00250548)
(0.0452418 0.077431 0.00250344)
(0.050254 0.0775197 0.00250029)
(0.0552473 0.0775575 0.00250043)
(0.0602455 0.0775718 0.0025006)
(0.0652472 0.077576 0.00250069)
(0.0702491 0.0775767 0.00250069)
(0.0752502 0.0775766 0.00250068)
(0.0802507 0.0775765 0.00250067)
(0.0852508 0.0775764 0.00250066)
(0.0902509 0.0775764 0.00250066)
(0.0952509 0.0775764 0.00250065)
(0.100251 0.0775764 0.00250065)
(0.105251 0.0775764 0.00250066)
(0.110251 0.0775764 0.00250066)
(0.115251 0.0775765 0.00250067)
(0.120252 0.0775766 0.00250068)
(0.125253 0.0775766 0.00250069)
(0.130254 0.0775758 0.00250069)
(0.135256 0.0775714 0.0025006)
(0.140254 0.0775569 0.00250043)
(0.145247 0.0775188 0.0025003)
(0.150259 0.07743 0.00250331)
(0.1553 0.0773296 0.00250546)
(0.160394 0.0772718 0.00250657)
(0.165564 0.0772634 0.00251236)
(0.17078 0.0773126 0.00255514)
(0.175554 0.0774284 0.00243912)
(0.0199297 0.0825012 0.00243503)
(0.0246945 0.0825053 0.00254765)
(0.0299146 0.0825147 0.00250691)
(0.0350926 0.0825337 0.0025019)
(0.0401895 0.0825668 0.00250173)
(0.0452318 0.0826113 0.0025014)
(0.0502469 0.0826507 0.00250094)
(0.0552496 0.0826724 0.00250087)
(0.0602498 0.0826815 0.00250085)
(0.0652502 0.0826845 0.00250083)
(0.0702505 0.0826851 0.00250082)
(0.0752508 0.0826851 0.00250081)
(0.0802509 0.082685 0.0025008)
(0.0852509 0.082685 0.0025008)
(0.0902509 0.082685 0.0025008)
(0.0952509 0.082685 0.0025008)
(0.100251 0.082685 0.0025008)
(0.105251 0.082685 0.0025008)
(0.110251 0.082685 0.0025008)
(0.115251 0.082685 0.0025008)
(0.120251 0.0826851 0.00250081)
(0.125251 0.082685 0.00250082)
(0.130252 0.0826844 0.00250083)
(0.135252 0.0826814 0.00250085)
(0.140252 0.0826721 0.00250087)
(0.145255 0.0826502 0.00250094)
(0.15027 0.0826108 0.00250138)
(0.155312 0.0825664 0.00250173)
(0.160409 0.0825334 0.00250189)
(0.165587 0.0825145 0.00250693)
(0.170807 0.0825052 0.00254781)
(0.175572 0.0825011 0.00243476)
(0.0199482 0.0875749 0.00243925)
(0.0247216 0.0876987 0.00255468)
(0.0299358 0.0877681 0.00251224)
(0.035103 0.0878032 0.00250662)
(0.0401924 0.087827 0.00250636)
(0.0452313 0.0878479 0.00250612)
(0.0502457 0.0878644 0.00250588)
(0.0552498 0.0878741 0.00250574)
(0.0602507 0.0878784 0.00250567)
(0.0652508 0.0878799 0.00250564)
(0.0702509 0.0878802 0.00250562)
(0.0752509 0.0878802 0.00250562)
(0.0802509 0.0878802 0.00250561)
(0.0852509 0.0878802 0.00250561)
(0.0902509 0.0878802 0.00250561)
(0.0952509 0.0878802 0.00250561)
(0.100251 0.0878802 0.00250561)
(0.105251 0.0878802 0.00250561)
(0.110251 0.0878802 0.00250561)
(0.115251 0.0878802 0.00250561)
(0.120251 0.0878802 0.00250562)
(0.125251 0.0878802 0.00250562)
(0.130251 0.0878799 0.00250564)
(0.135251 0.0878783 0.00250567)
(0.140252 0.087874 0.00250574)
(0.145256 0.0878642 0.00250588)
(0.15027 0.0878477 0.00250611)
(0.155309 0.0878269 0.00250635)
(0.160399 0.0878031 0.00250661)
(0.165566 0.0877677 0.00251224)
(0.170781 0.0876982 0.00255509)
(0.175554 0.0875739 0.00243909)
(0.0200445 0.0925594 0.00247598)
(0.0248313 0.0929118 0.00260697)
(0.0300145 0.0930209 0.00255501)
(0.0351434 0.0930647 0.00254711)
(0.0402089 0.0930853 0.00254652)
(0.0452365 0.0930968 0.00254631)
(0.0502468 0.0931039 0.00254618)
(0.05525 0.0931077 0.00254609)
(0.0602508 0.0931094 0.00254604)
(0.0652509 0.09311 0.00254601)
(0.0702509 0.0931101 0.00254601)
(0.0752509 0.0931101 0.002546)
(0.0802509 0.0931101 0.002546)
(0.0852509 0.0931101 0.002546)
(0.0902509 0.0931101 0.002546)
(0.0952509 0.0931101 0.002546)
(0.100251 0.0931101 0.002546)
(0.105251 0.0931101 0.002546)
(0.110251 0.0931101 0.002546)
(0.115251 0.0931101 0.002546)
(0.120251 0.0931101 0.002546)
(0.125251 0.0931101 0.00254601)
(0.130251 0.09311 0.00254601)
(0.135251 0.0931094 0.00254604)
(0.140252 0.0931077 0.00254609)
(0.145255 0.0931039 0.00254618)
(0.150265 0.0930968 0.00254631)
(0.155293 0.0930853 0.0025465)
(0.160359 0.0930647 0.00254703)
(0.165488 0.0930202 0.00255462)
(0.170673 0.092909 0.00260697)
(0.175462 0.092555 0.00247451)
(0.0201989 0.0975524 0.00240155)
(0.0251912 0.0977099 0.0024746)
(0.0301613 0.0978046 0.00243924)
(0.0352068 0.0978326 0.00243477)
(0.0402343 0.0978429 0.00243463)
(0.0452452 0.0978476 0.00243467)
(0.0502492 0.0978499 0.00243466)
(0.0552505 0.0978509 0.00243463)
(0.0602508 0.0978513 0.00243461)
(0.0652509 0.0978514 0.0024346)
(0.0702509 0.0978515 0.00243459)
(0.0752509 0.0978515 0.00243459)
(0.0802509 0.0978514 0.00243459)
(0.0852509 0.0978514 0.00243459)
(0.0902509 0.0978514 0.00243459)
(0.0952509 0.0978514 0.00243459)
(0.100251 0.0978514 0.00243459)
(0.105251 0.0978514 0.00243459)
(0.110251 0.0978514 0.00243459)
(0.115251 0.0978514 0.00243459)
(0.120251 0.0978515 0.00243459)
(0.125251 0.0978515 0.00243459)
(0.130251 0.0978514 0.0024346)
(0.135251 0.0978513 0.00243461)
(0.140251 0.0978509 0.00243464)
(0.145253 0.0978499 0.00243467)
(0.150257 0.0978476 0.00243469)
(0.155268 0.097843 0.00243469)
(0.160296 0.0978326 0.00243491)
(0.165342 0.0978043 0.00243935)
(0.170315 0.0977053 0.00247605)
(0.175304 0.0975514 0.00240155)
(0.020198 0.00244859 0.00759845)
(0.0251867 0.00229466 0.00752395)
(0.0301601 0.0021956 0.00756069)
(0.0352059 0.00216743 0.0075651)
(0.040234 0.00215703 0.00756531)
(0.0452451 0.00215237 0.00756531)
(0.0502492 0.00215012 0.00756533)
(0.0552505 0.00214909 0.00756536)
(0.0602508 0.00214869 0.00756539)
(0.0652509 0.00214856 0.0075654)
(0.0702509 0.00214854 0.00756541)
(0.0752509 0.00214855 0.00756541)
(0.0802509 0.00214856 0.00756541)
(0.0852509 0.00214856 0.00756541)
(0.0902509 0.00214856 0.00756541)
(0.0952509 0.00214856 0.00756541)
(0.100251 0.00214856 0.00756541)
(0.105251 0.00214856 0.00756541)
(0.110251 0.00214856 0.00756541)
(0.115251 0.00214856 0.00756541)
(0.120251 0.00214855 0.00756541)
(0.125251 0.00214854 0.00756541)
(0.130251 0.00214857 0.0075654)
(0.135251 0.00214869 0.00756539)
(0.140251 0.0021491 0.00756536)
(0.145253 0.00215014 0.00756533)
(0.150257 0.00215238 0.00756531)
(0.155268 0.00215705 0.00756531)
(0.160296 0.00216745 0.00756509)
(0.165342 0.00219569 0.00756065)
(0.170315 0.00229468 0.00752395)
(0.175304 0.00244858 0.00759845)
(0.0200399 0.00744505 0.0075255)
(0.0248284 0.00709095 0.00739299)
(0.0300138 0.00697973 0.00744537)
(0.0351426 0.00693527 0.00745297)
(0.0402085 0.00691462 0.00745349)
(0.0452363 0.0069031 0.00745369)
(0.0502467 0.00689607 0.00745383)
(0.0552499 0.00689225 0.00745391)
(0.0602508 0.00689057 0.00745396)
(0.0652509 0.00689001 0.00745399)
(0.0702509 0.00688989 0.00745399)
(0.0752509 0.00688989 0.007454)
(0.0802509 0.0068899 0.007454)
(0.0852509 0.00688991 0.007454)
(0.0902509 0.00688991 0.007454)
(0.0952509 0.00688991 0.007454)
(0.100251 0.00688991 0.007454)
(0.105251 0.00688991 0.007454)
(0.110251 0.00688991 0.007454)
(0.115251 0.0068899 0.007454)
(0.120251 0.00688989 0.007454)
(0.125251 0.00688989 0.00745399)
(0.130251 0.00689002 0.00745399)
(0.135251 0.0068906 0.00745396)
(0.140252 0.00689229 0.00745391)
(0.145255 0.00689613 0.00745382)
(0.150265 0.00690317 0.00745369)
(0.155293 0.00691468 0.00745349)
(0.160359 0.00693532 0.00745297)
(0.165488 0.00697983 0.00744538)
(0.170673 0.007091 0.00739303)
(0.175462 0.00744497 0.00752549)
(0.019948 0.0124261 0.00756092)
(0.0247209 0.0123018 0.00744492)
(0.0299353 0.0122322 0.00748776)
(0.0351026 0.0121968 0.00749339)
(0.0401922 0.0121729 0.00749365)
(0.0452312 0.0121521 0.00749389)
(0.0502456 0.0121356 0.00749412)
(0.0552498 0.0121259 0.00749426)
(0.0602507 0.0121216 0.00749433)
(0.0652508 0.0121201 0.00749436)
(0.0702509 0.0121198 0.00749438)
(0.0752509 0.0121198 0.00749438)
(0.0802509 0.0121198 0.00749439)
(0.0852509 0.0121198 0.00749439)
(0.0902509 0.0121198 0.00749439)
(0.0952509 0.0121198 0.00749439)
(0.100251 0.0121198 0.00749439)
(0.105251 0.0121198 0.00749439)
(0.110251 0.0121198 0.00749439)
(0.115251 0.0121198 0.00749439)
(0.120251 0.0121198 0.00749438)
(0.125251 0.0121198 0.00749438)
(0.130251 0.0121201 0.00749436)
(0.135251 0.0121217 0.00749433)
(0.140252 0.012126 0.00749426)
(0.145256 0.0121358 0.00749412)
(0.15027 0.0121523 0.00749389)
(0.155309 0.0121731 0.00749365)
(0.160399 0.0121969 0.00749339)
(0.165566 0.0122323 0.00748776)
(0.170781 0.0123018 0.00744491)
(0.175554 0.0124261 0.00756091)
(0.0199297 0.0174988 0.00756524)
(0.0246944 0.0174947 0.00745219)
(0.0299143 0.0174853 0.00749307)
(0.0350924 0.0174663 0.0074981)
(0.0401893 0.0174331 0.00749826)
(0.0452317 0.0173887 0.0074986)
(0.0502469 0.0173493 0.00749906)
(0.0552496 0.0173276 0.00749913)
(0.0602498 0.0173185 0.00749915)
(0.0652502 0.0173155 0.00749917)
(0.0702505 0.0173149 0.00749918)
(0.0752508 0.0173149 0.00749919)
(0.0802509 0.017315 0.0074992)
(0.0852509 0.017315 0.0074992)
(0.0902509 0.017315 0.0074992)
(0.0952509 0.017315 0.0074992)
(0.100251 0.017315 0.0074992)
(0.105251 0.017315 0.0074992)
(0.110251 0.017315 0.0074992)
(0.115251 0.017315 0.0074992)
(0.120251 0.0173149 0.00749919)
(0.125251 0.017315 0.00749918)
(0.130252 0.0173156 0.00749917)
(0.135252 0.0173186 0.00749915)
(0.140252 0.0173279 0.00749913)
(0.145255 0.0173498 0.00749906)
(0.15027 0.0173892 0.00749862)
(0.155312 0.0174336 0.00749826)
(0.160409 0.0174666 0.0074981)
(0.165587 0.0174855 0.00749307)
(0.170807 0.0174948 0.00745219)
(0.175572 0.0174989 0.00756524)
(0.0199481 0.0225715 0.00756088)
(0.0247215 0.0226873 0.00744485)
(0.0299372 0.0227363 0.00748763)
(0.0351072 0.0227276 0.00749341)
(0.0402008 0.0226693 0.00749452)
(0.0452417 0.022569 0.00749656)
(0.0502539 0.0224803 0.00749971)
(0.0552473 0.0224425 0.00749957)
(0.0602455 0.0224282 0.0074994)
(0.0652472 0.022424 0.00749931)
(0.0702491 0.0224233 0.00749931)
(0.0752502 0.0224234 0.00749932)
(0.0802507 0.0224235 0.00749933)
(0.0852508 0.0224236 0.00749934)
(0.0902509 0.0224236 0.00749934)
(0.0952509 0.0224236 0.00749934)
(0.100251 0.0224236 0.00749934)
(0.105251 0.0224236 0.00749934)
(0.110251 0.0224236 0.00749934)
(0.115251 0.0224236 0.00749933)
(0.120252 0.0224234 0.00749932)
(0.125253 0.0224234 0.00749931)
(0.130254 0.0224242 0.00749931)
(0.135256 0.0224286 0.0074994)
(0.140254 0.0224431 0.00749957)
(0.145247 0.0224812 0.0074997)
(0.150259 0.02257 0.00749669)
(0.1553 0.0226704 0.00749454)
(0.160394 0.0227282 0.00749343)
(0.165564 0.0227366 0.00748764)
(0.17078 0.0226874 0.00744486)
(0.175554 0.0225716 0.00756088)
(0.0200403 0.0275529 0.00752545)
(0.0248298 0.0278992 0.00739291)
(0.030018 0.0279901 0.00744499)
(0.0351537 0.0279824 0.00745328)
(0.040239 0.0278903 0.00746207)
(0.0452857 0.0276793 0.0074788)
(0.0502934 0.0275019 0.00750635)
(0.0552385 0.0274829 0.00750162)
(0.0602311 0.0274737 0.00749984)
(0.065238 0.0274714 0.00749956)
(0.0702449 0.0274715 0.0074995)
(0.0752486 0.0274719 0.00749952)
(0.0802501 0.0274722 0.00749954)
(0.0852507 0.0274723 0.00749956)
(0.0902508 0.0274723 0.00749957)
(0.0952509 0.0274723 0.00749957)
(0.100251 0.0274723 0.00749957)
(0.105251 0.0274723 0.00749957)
(0.110251 0.0274723 0.00749956)
(0.115252 0.0274722 0.00749954)
(0.120253 0.027472 0.00749952)
(0.125257 0.0274716 0.0074995)
(0.130263 0.0274717 0.00749957)
(0.13527 0.0274742 0.00749984)
(0.140263 0.0274837 0.00750162)
(0.145209 0.0275024 0.0075062)
(0.150217 0.027679 0.00748025)
(0.155261 0.0278915 0.00746249)
(0.160347 0.0279831 0.00745339)
(0.165483 0.0279905 0.00744502)
(0.170672 0.0278994 0.00739292)
(0.175462 0.027553 0.00752545)
(0.0201985 0.0325506 0.00759842)
(0.0251885 0.0327011 0.00752378)
(0.0301663 0.0327908 0.00756004)
(0.035223 0.0327906 0.00756337)
(0.0402794 0.0327351 0.00754898)
(0.0453382 0.0325917 0.00751272)
(0.0502702 0.0324751 0.00750456)
(0.0552211 0.0324456 0.00750652)
(0.0601935 0.0324812 0.00750028)
(0.0652166 0.0324877 0.0074998)
(0.0702357 0.0324896 0.00749964)
(0.0752453 0.0324905 0.00749967)
(0.0802491 0.0324909 0.00749972)
(0.0852504 0.0324911 0.00749976)
(0.0902508 0.0324911 0.00749977)
(0.0952509 0.0324911 0.00749978)
(0.100251 0.0324911 0.00749978)
(0.105251 0.0324911 0.00749977)
(0.110251 0.0324911 0.00749976)
(0.115253 0.032491 0.00749972)
(0.120256 0.0324906 0.00749968)
(0.125266 0.0324898 0.00749964)
(0.130285 0.0324881 0.0074998)
(0.135307 0.0324818 0.00750028)
(0.14028 0.0324447 0.00750667)
(0.145235 0.0324722 0.00750457)
(0.150163 0.0325917 0.00751299)
(0.15522 0.0327358 0.00754841)
(0.160278 0.0327909 0.00756323)
(0.165335 0.0327909 0.00756001)
(0.170313 0.0327012 0.00752377)
(0.175303 0.0325506 0.00759842)
(0.0501534 0.0374067 0.0075132)
(0.0550459 0.03745 0.00748079)
(0.0601055 0.0374854 0.00749748)
(0.0651784 0.0374933 0.00749962)
(0.070221 0.0374957 0.00749965)
(0.0752402 0.0374968 0.00749973)
(0.0802475 0.0374973 0.00749982)
(0.0852499 0.0374974 0.00749987)
(0.0902507 0.0374974 0.00749989)
(0.0952509 0.0374974 0.0074999)
(0.100251 0.0374974 0.0074999)
(0.105251 0.0374974 0.00749989)
(0.110252 0.0374974 0.00749987)
(0.115254 0.0374973 0.00749982)
(0.120262 0.0374969 0.00749974)
(0.125281 0.0374959 0.00749965)
(0.130323 0.0374937 0.0074996)
(0.135395 0.0374861 0.00749736)
(0.140456 0.0374489 0.00747933)
(0.145349 0.0374069 0.00751295)
(0.0500086 0.0424544 0.00754851)
(0.0548341 0.0424693 0.00746296)
(0.0600073 0.0424897 0.00749545)
(0.0651375 0.0424959 0.00749944)
(0.0702056 0.042498 0.0074996)
(0.0752349 0.0424989 0.00749973)
(0.0802459 0.0424992 0.00749985)
(0.0852495 0.0424993 0.00749992)
(0.0902505 0.0424993 0.00749995)
(0.0952508 0.0424993 0.00749996)
(0.100251 0.0424993 0.00749996)
(0.105251 0.0424993 0.00749995)
(0.110252 0.0424993 0.00749992)
(0.115256 0.0424992 0.00749985)
(0.120267 0.0424989 0.00749973)
(0.125296 0.0424981 0.0074996)
(0.130364 0.0424963 0.00749944)
(0.135493 0.0424905 0.00749542)
(0.140666 0.0424704 0.00746252)
(0.145492 0.0424565 0.00754907)
(0.049953 0.047489 0.00756313)
(0.0547446 0.0474926 0.00745412)
(0.0599546 0.0474966 0.00749448)
(0.0651134 0.0474986 0.00749937)
(0.0701962 0.0474994 0.00749956)
(0.0752316 0.0474997 0.00749971)
(0.0802449 0.0474998 0.00749985)
(0.0852492 0.0474999 0.00749993)
(0.0902505 0.0474999 0.00749997)
(0.0952508 0.0474999 0.00749998)
(0.100251 0.0474999 0.00749998)
(0.105251 0.0474999 0.00749997)
(0.110253 0.0474999 0.00749993)
(0.115257 0.0474998 0.00749985)
(0.12027 0.0474997 0.00749971)
(0.125305 0.0474994 0.00749956)
(0.130388 0.0474987 0.00749937)
(0.135546 0.0474968 0.00749446)
(0.140756 0.047493 0.00745398)
(0.145548 0.0474894 0.0075633)
(0.049953 0.052511 0.00756313)
(0.0547446 0.0525074 0.00745412)
(0.0599546 0.0525034 0.00749448)
(0.0651134 0.0525014 0.00749937)
(0.0701962 0.0525006 0.00749956)
(0.0752316 0.0525003 0.00749971)
(0.0802449 0.0525002 0.00749985)
(0.0852492 0.0525001 0.00749993)
(0.0902505 0.0525001 0.00749997)
(0.0952508 0.0525001 0.00749998)
(0.100251 0.0525001 0.00749998)
(0.105251 0.0525001 0.00749997)
(0.110253 0.0525001 0.00749993)
(0.115257 0.0525002 0.00749985)
(0.12027 0.0525003 0.00749971)
(0.125305 0.0525006 0.00749956)
(0.130388 0.0525013 0.00749937)
(0.135546 0.0525032 0.00749446)
(0.140756 0.052507 0.00745398)
(0.145548 0.0525106 0.0075633)
(0.0500086 0.0575456 0.00754851)
(0.0548341 0.0575307 0.00746296)
(0.0600073 0.0575103 0.00749545)
(0.0651375 0.0575041 0.00749944)
(0.0702056 0.057502 0.0074996)
(0.0752349 0.0575011 0.00749973)
(0.0802459 0.0575008 0.00749985)
(0.0852495 0.0575007 0.00749992)
(0.0902505 0.0575007 0.00749995)
(0.0952508 0.0575007 0.00749996)
(0.100251 0.0575007 0.00749996)
(0.105251 0.0575007 0.00749995)
(0.110252 0.0575007 0.00749992)
(0.115256 0.0575008 0.00749985)
(0.120267 0.0575011 0.00749973)
(0.125296 0.0575019 0.0074996)
(0.130364 0.0575037 0.00749944)
(0.135493 0.0575095 0.00749542)
(0.140666 0.0575296 0.00746252)
(0.145492 0.0575435 0.00754907)
(0.0501534 0.0625933 0.0075132)
(0.0550459 0.06255 0.00748079)
(0.0601055 0.0625146 0.00749748)
(0.0651784 0.0625067 0.00749962)
(0.070221 0.0625043 0.00749965)
(0.0752402 0.0625032 0.00749973)
(0.0802475 0.0625027 0.00749982)
(0.0852499 0.0625026 0.00749987)
(0.0902507 0.0625026 0.00749989)