/*--------------------------------*- C++ -*----------------------------------*\
| =========                 |                                                 |
| \\      /  F ield         | OpenFOAM: The Open Source CFD Toolbox           |
|  \\    /   O peration     | Version:  2406                                  |
|   \\  /    A nd           | Website:  www.openfoam.com                      |
|    \\/     M anipulation  |                                                 |
\*---------------------------------------------------------------------------*/
FoamFile
{
    version     2.0;
    format      ascii;
    arch        "LSB;label=32;scalar=64";
    class       volScalarField;
    location    "0";
    object      Cx;
}
// * * * * * * * * * * * * * * * * * * * * * * * * * * * * * * * * * * * * * //

dimensions      [0 1 0 0 0 0 0];

internalField   nonuniform List<scalar> 
1136
(
0.020198
0.0251867
0.0301601
0.0352059
0.040234
0.0452451
0.0502492
0.0552505
0.0602508
0.0652509
0.0702509
0.0752509
0.0802509
0.0852509
0.0902509
0.0952509
0.100251
0.105251
0.110251
0.115251
0.120251
0.125251
0.130251
0.135251
0.140251
0.145253
0.150257
0.155268
0.160296
0.165342
0.170315
0.175304
0.0200399
0.0248284
0.0300138
0.0351426
0.0402085
0.0452363
0.0502467
0.0552499
0.0602508
0.0652509
0.0702509
0.0752509
0.0802509
0.0852509
0.0902509
0.0952509
0.100251
0.105251
0.110251
0.115251
0.120251
0.125251
0.130251
0.135251
0.140252
0.145255
0.150265
0.155293
0.160359
0.165488
0.170673
0.175462
0.019948
0.0247209
0.0299353
0.0351026
0.0401922
0.0452312
0.0502456
0.0552498
0.0602507
0.0652508
0.0702509
0.0752509
0.0802509
0.0852509
0.0902509
0.0952509
0.100251
0.105251
0.110251
0.115251
0.120251
0.125251
0.130251
0.135251
0.140252
0.145256
0.15027
0.155309
0.160399
0.165566
0.170781
0.175554
0.0199297
0.0246944
0.0299143
0.0350924
0.0401893
0.0452317
0.0502469
0.0552496
0.0602498
0.0652502
0.0702505
0.0752508
0.0802509
0.0852509
0.0902509
0.0952509
0.100251
0.105251
0.110251
0.115251
0.120251
0.125251
0.130252
0.135252
0.140252
0.145255
0.15027
0.155312
0.160409
0.165587
0.170807
0.175572
0.0199481
0.0247215
0.0299372
0.0351072
0.0402008
0.0452417
0.0502539
0.0552473
0.0602455
0.0652472
0.0702491
0.0752502
0.0802507
0.0852508
0.0902509
0.0952509
0.100251
0.105251
0.110251
0.115251
0.120252
0.125253
0.130254
0.135256
0.140254
0.145247
0.150259
0.1553
0.160394
0.165564
0.17078
0.175554
0.0200403
0.0248298
0.030018
0.0351537
0.040239
0.0452857
0.0502934
0.0552385
0.0602311
0.065238
0.0702449
0.0752486
0.0802501
0.0852507
0.0902508
0.0952509
0.100251
0.105251
0.110251
0.115252
0.120253
0.125257
0.130263
0.13527
0.140263
0.145209
0.150217
0.155261
0.160347
0.165483
0.170672
0.175462
0.0201985
0.0251885
0.0301663
0.035223
0.0402794
0.0453382
0.0502702
0.0552211
0.0601935
0.0652166
0.0702357
0.0752453
0.0802491
0.0852504
0.0902508
0.0952509
0.100251
0.105251
0.110251
0.115253
0.120256
0.125266
0.130285
0.135307
0.14028
0.145235
0.150163
0.15522
0.160278
0.165335
0.170313
0.175303
0.0501534
0.0550459
0.0601055
0.0651784
0.070221
0.0752402
0.0802475
0.0852499
0.0902507
0.0952509
0.100251
0.105251
0.110252
0.115254
0.120262
0.125281
0.130323
0.135395
0.140456
0.145349
0.0500086
0.0548341
0.0600073
0.0651375
0.0702056
0.0752349
0.0802459
0.0852495
0.0902505
0.0952508
0.100251
0.105251
0.110252
0.115256
0.120267
0.125296
0.130364
0.135493
0.140666
0.145492
0.049953
0.0547446
0.0599546
0.0651134
0.0701962
0.0752316
0.0802449
0.0852492
0.0902505
0.0952508
0.100251
0.105251
0.110253
0.115257
0.12027
0.125305
0.130388
0.135546
0.140756
0.145548
0.049953
0.0547446
0.0599546
0.0651134
0.0701962
0.0752316
0.0802449
0.0852492
0.0902505
0.0952508
0.100251
0.105251
0.110253
0.115257
0.12027
0.125305
0.130388
0.135546
0.140756
0.145548
0.0500086
0.0548341
0.0600073
0.0651375
0.0702056
0.0752349
0.0802459
0.0852495
0.0902505
0.0952508
0.100251
0.105251
0.110252
0.115256
0.120267
0.125296
0.130364
0.135493
0.140666
0.145492
0.0501534
0.0550459
0.0601055
0.0651784
0.070221
0.0752402
0.0802475
0.0852499
0.0902507
0.0952509
0.100251
0.105251
0.110252
0.115254
0.120262
0.125281
0.130323
0.135395
0.140456
0.145349
0.0201994
0.025193
0.0301677
0.0352238
0.0402798
0.0453383
0.0502702
0.0552211
0.0601935
0.0652166
0.0702357
0.0752453
0.0802491
0.0852504
0.0902508
0.0952509
0.100251
0.105251
0.110251
0.115253
0.120256
0.125266
0.130285
0.135307
0.14028
0.145235
0.150163
0.15522
0.160278
0.165335
0.170313
0.175303
0.0200448
0.0248327
0.0300188
0.0351545
0.0402394
0.0452858
0.0502934
0.0552386
0.0602311
0.065238
0.0702449
0.0752486
0.0802501
0.0852507
0.0902508
0.0952509
0.100251
0.105251
0.110251
0.115252
0.120253
0.125257
0.130263
0.13527
0.140263
0.145209
0.150217
0.155262
0.160347
0.165483
0.170672
0.175462
0.0199482
0.0247222
0.0299377
0.0351076
0.040201
0.0452418
0.050254
0.0552473
0.0602455
0.0652472
0.0702491
0.0752502
0.0802507
0.0852508
0.0902509
0.0952509
0.100251
0.105251
0.110251
0.115251
0.120252
0.125253
0.130254
0.135256
0.140254
0.145247
0.150259
0.1553
0.160394
0.165564
0.17078
0.175554
0.0199297
0.0246945
0.0299146
0.0350926
0.0401895
0.0452318
0.0502469
0.0552496
0.0602498
0.0652502
0.0702505
0.0752508
0.0802509
0.0852509
0.0902509
0.0952509
0.100251
0.105251
0.110251
0.115251
0.120251
0.125251
0.130252
0.135252
0.140252
0.145255
0.15027
0.155312
0.160409
0.165587
0.170807
0.175572
0.0199482
0.0247216
0.0299358
0.035103
0.0401924
0.0452313
0.0502457
0.0552498
0.0602507
0.0652508
0.0702509
0.0752509
0.0802509
0.0852509
0.0902509
0.0952509
0.100251
0.105251
0.110251
0.115251
0.120251
0.125251
0.130251
0.135251
0.140252
0.145256
0.15027
0.155309
0.160399
0.165566
0.170781
0.175554
0.0200445
0.0248313
0.0300145
0.0351434
0.0402089
0.0452365
0.0502468
0.05525
0.0602508
0.0652509
0.0702509
0.0752509
0.0802509
0.0852509
0.0902509
0.0952509
0.100251
0.105251
0.110251
0.115251
0.120251
0.125251
0.130251
0.135251
0.140252
0.145255
0.150265
0.155293
0.160359
0.165488
0.170673
0.175462
0.0201989
0.0251912
0.0301613
0.0352068
0.0402343
0.0452452
0.0502492
0.0552505
0.0602508
0.0652509
0.0702509
0.0752509
0.0802509
0.0852509
0.0902509
0.0952509
0.100251
0.105251
0.110251
0.115251
0.120251
0.125251
0.130251
0.135251
0.140251
0.145253
0.150257
0.155268
0.160296
0.165342
0.170315
0.175304
0.020198
0.0251867
0.0301601
0.0352059
0.040234
0.0452451
0.0502492
0.0552505
0.0602508
0.0652509
0.0702509
0.0752509
0.0802509
0.0852509
0.0902509
0.0952509
0.100251
0.105251
0.110251
0.115251
0.120251
0.125251
0.130251
0.135251
0.140251
0.145253
0.150257
0.155268
0.160296
0.165342
0.170315
0.175304
0.0200399
0.0248284
0.0300138
0.0351426
0.0402085
0.0452363
0.0502467
0.0552499
0.0602508
0.0652509
0.0702509
0.0752509
0.0802509
0.0852509
0.0902509
0.0952509
0.100251
0.105251
0.110251
0.115251
0.120251
0.125251
0.130251
0.135251
0.140252
0.145255
0.150265
0.155293
0.160359
0.165488
0.170673
0.175462
0.019948
0.0247209
0.0299353
0.0351026
0.0401922
0.0452312
0.0502456
0.0552498
0.0602507
0.0652508
0.0702509
0.0752509
0.0802509
0.0852509
0.0902509
0.0952509
0.100251
0.105251
0.110251
0.115251
0.120251
0.125251
0.130251
0.135251
0.140252
0.145256
0.15027
0.155309
0.160399
0.165566
0.170781
0.175554
0.0199297
0.0246944
0.0299143
0.0350924
0.0401893
0.0452317
0.0502469
0.0552496
0.0602498
0.0652502
0.0702505
0.0752508
0.0802509
0.0852509
0.0902509
0.0952509
0.100251
0.105251
0.110251
0.115251
0.120251
0.125251
0.130252
0.135252
0.140252
0.145255
0.15027
0.155312
0.160409
0.165587
0.170807
0.175572
0.0199481
0.0247215
0.0299372
0.0351072
0.0402008
0.0452417
0.0502539
0.0552473
0.0602455
0.0652472
0.0702491
0.0752502
0.0802507
0.0852508
0.0902509
0.0952509
0.100251
0.105251
0.110251
0.115251
0.120252
0.125253
0.130254
0.135256
0.140254
0.145247
0.150259
0.1553
0.160394
0.165564
0.17078
0.175554
0.0200403
0.0248298
0.030018
0.0351537
0.040239
0.0452857
0.0502934
0.0552385
0.0602311
0.065238
0.0702449
0.0752486
0.0802501
0.0852507
0.0902508
0.0952509
0.100251
0.105251
0.110251
0.115252
0.120253
0.125257
0.130263
0.13527
0.140263
0.145209
0.150217
0.155261
0.160347
0.165483
0.170672
0.175462
0.0201985
0.0251885
0.0301663
0.035223
0.0402794
0.0453382
0.0502702
0.0552211
0.0601935
0.0652166
0.0702357
0.0752453
0.0802491
0.0852504
0.0902508
0.0952509
0.100251
0.105251
0.110251
0.115253
0.120256
0.125266
0.130285
0.135307
0.14028
0.145235
0.150163
0.15522
0.160278
0.165335
0.170313
0.175303
0.0501534
0.0550459
0.0601055
0.0651784
0.070221
0.0752402
0.0802475
0.0852499
0.0902507
0.0952509
0.100251
0.105251
0.110252
0.115254
0.120262
0.125281
0.130323
0.135395
0.140456
0.145349
0.0500086
0.0548341
0.0600073
0.0651375
0.0702056
0.0752349
0.0802459
0.0852495
0.0902505
0.0952508
0.100251
0.105251
0.110252
0.115256
0.120267
0.125296
0.130364
0.135493
0.140666
0.145492
0.049953
0.0547446
0.0599546
0.0651134
0.0701962
0.0752316
0.0802449
0.0852492
0.0902505
0.0952508
0.100251
0.105251
0.110253
0.115257
0.12027
0.125305
0.130388
0.135546
0.140756
0.145548
0.049953
0.0547446
0.0599546
0.0651134
0.0701962
0.0752316
0.0802449
0.0852492
0.0902505
0.0952508
0.100251
0.105251
0.110253
0.115257
0.12027
0.125305
0.130388
0.135546
0.140756
0.145548
0.0500086
0.0548341
0.0600073
0.0651375
0.0702056
0.0752349
0.0802459
0.0852495
0.0902505
0.0952508
0.100251
0.105251
0.110252
0.115256
0.120267
0.125296
0.130364
0.135493
0.140666
0.145492
0.0501534
0.0550459
0.0601055
0.0651784
0.070221
0.0752402
0.0802475
0.0852499
0.0902507
0.0952509
0.100251
0.105251
0.110252
0.115254
0.120262
0.125281
0.130323
0.135395
0.140456
0.145349
0.0201994
0.025193
0.0301677
0.0352238
0.0402798
0.0453383
0.0502702
0.0552211
0.0601935
0.0652166
0.0702357
0.0752453
0.0802491
0.0852504
0.0902508
0.0952509
0.100251
0.105251
0.110251
0.115253
0.120256
0.125266
0.130285
0.135307
0.14028
0.145235
0.150163
0.15522
0.160278
0.165335
0.170313
0.175303
0.0200448
0.0248327
0.0300188
0.0351545
0.0402394
0.0452858
0.0502934
0.0552386
0.0602311
0.065238
0.0702449
0.0752486
0.0802501
0.0852507
0.0902508
0.0952509
0.100251
0.105251
0.110251
0.115252
0.120253
0.125257
0.130263
0.13527
0.140263
0.145209
0.150217
0.155262
0.160347
0.165483
0.170672
0.175462
0.0199482
0.0247222
0.0299377
0.0351076
0.040201
0.0452418
0.050254
0.0552473
0.0602455
0.0652472
0.0702491
0.0752502
0.0802507
0.0852508
0.0902509
0.0952509
0.100251
0.105251
0.110251
0.115251
0.120252
0.125253
0.130254
0.135256
0.140254
0.145247
0.150259
0.1553
0.160394
0.165564
0.17078
0.175554
0.0199297
0.0246945
0.0299146
0.0350926
0.0401895
0.0452318
0.0502469
0.0552496
0.0602498
0.0652502
0.0702505
0.0752508
0.0802509
0.0852509
0.0902509
0.0952509
0.100251
0.105251
0.110251
0.115251
0.120251
0.125251
0.130252
0.135252
0.140252
0.145255
0.15027
0.155312
0.160409
0.165587
0.170807
0.175572
0.0199482
0.0247216
0.0299358
0.035103
0.0401924
0.0452313
0.0502457
0.0552498
0.0602507
0.0652508
0.0702509
0.0752509
0.0802509
0.0852509
0.0902509
0.0952509
0.100251
0.105251
0.110251
0.115251
0.120251
0.125251
0.130251
0.135251
0.140252
0.145256
0.15027
0.155309
0.160399
0.165566
0.170781
0.175554
0.0200445
0.0248313
0.0300145
0.0351434
0.0402089
0.0452365
0.0502468
0.05525
0.0602508
0.0652509
0.0702509
0.0752509
0.0802509
0.0852509
0.0902509
0.0952509
0.100251
0.105251
0.110251
0.115251
0.120251
0.125251
0.130251
0.135251
0.140252
0.145255
0.150265
0.155293
0.160359
0.165488
0.170673
0.175462
0.0201989
0.0251912
0.0301613
0.0352068
0.0402343
0.0452452
0.0502492
0.0552505
0.0602508
0.0652509
0.0702509
0.0752509
0.0802509
0.0852509
0.0902509
0.0952509
0.100251
0.105251
0.110251
0.115251
0.120251
0.125251
0.130251
0.135251
0.140251
0.145253
0.150257
0.155268
0.160296
0.165342
0.170315
0.175304
)
;

boundaryField
{
    patch_1_0
    {
        type            calculated;
        value           nonuniform List<scalar> 
184
(
0.177751
0.177751
0.177751
0.177751
0.177751
0.177751
0.177751
0.177751
0.177751
0.177751
0.177751
0.177751
0.177751
0.0204848
0.0254957
0.0302591
0.0352442
0.0402489
0.0452503
0.0502507
0.0552509
0.0602509
0.0652509
0.0702509
0.0752509
0.0802509
0.0852509
0.0902509
0.0952509
0.100251
0.105251
0.110251
0.115251
0.120251
0.125251
0.130251
0.135251
0.140251
0.145251
0.150252
0.155253
0.160258
0.165244
0.170006
0.177751
0.175016
0.177751
0.177751
0.177751
0.177751
0.177751
0.177751
0.177751
0.177751
0.177751
0.177751
0.177751
0.177751
0.177751
0.0204848
0.0254957
0.0302591
0.0352442
0.0402489
0.0452503
0.0502507
0.0552509
0.0602509
0.0652509
0.0702509
0.0752509
0.0802509
0.0852509
0.0902509
0.0952509
0.100251
0.105251
0.110251
0.115251
0.120251
0.125251
0.130251
0.135251
0.140251
0.145251
0.150252
0.155253
0.160258
0.165244
0.170006
0.177751
0.175016
0.020486
0.0254959
0.0302576
0.0352435
0.0402487
0.0452502
0.0502507
0.0552509
0.0602509
0.0652509
0.0702509
0.0752509
0.0802509
0.0852509
0.0902509
0.0952509
0.100251
0.105251
0.110251
0.115251
0.120251
0.125251
0.130251
0.135251
0.140251
0.145251
0.150252
0.155253
0.160258
0.165244
0.170006
0.175016
0.0177509
0.0177509
0.0177509
0.0177509
0.0177509
0.0177509
0.0177509
0.0177509
0.0177509
0.0177509
0.0177509
0.0177509
0.0177509
0.0177509
0.020486
0.0254959
0.0302576
0.0352435
0.0402487
0.0452502
0.0502507
0.0552509
0.0602509
0.0652509
0.0702509
0.0752509
0.0802509
0.0852509
0.0902509
0.0952509
0.100251
0.105251
0.110251
0.115251
0.120251
0.125251
0.130251
0.135251
0.140251
0.145251
0.150252
0.155253
0.160258
0.165244
0.170006
0.175016
0.0177509
0.0177509
0.0177509
0.0177509
0.0177509
0.0177509
0.0177509
0.0177509
0.0177509
0.0177509
0.0177509
0.0177509
0.0177509
0.0177509
)
;
    }
    patch_2_0
    {
        type            calculated;
        value           nonuniform List<scalar> 
568
(
0.0203553
0.0253558
0.0301807
0.0352082
0.0402346
0.0452454
0.0502493
0.0552505
0.0602509
0.0652509
0.0702509
0.0752509
0.0802509
0.0852509
0.0902509
0.0952509
0.100251
0.105251
0.110251
0.115251
0.120251
0.125251
0.130251
0.135251
0.140251
0.145252
0.150256
0.155267
0.160294
0.165321
0.170146
0.175147
0.0202165
0.0250499
0.0300367
0.0351447
0.0402099
0.0452373
0.0502472
0.0552502
0.0602508
0.065251
0.0702509
0.0752509
0.0802509
0.0852509
0.0902509
0.0952509
0.100251
0.105251
0.110251
0.115251
0.120251
0.125251
0.130251
0.135251
0.140252
0.145255
0.150264
0.155292
0.160357
0.165465
0.170452
0.175285
0.0201197
0.0249231
0.0299628
0.0351095
0.0401962
0.0452332
0.0502465
0.0552502
0.0602509
0.0652509
0.0702509
0.0752509
0.0802509
0.0852509
0.0902509
0.0952509
0.100251
0.105251
0.110251
0.115251
0.120251
0.125251
0.130251
0.135251
0.140252
0.145255
0.150268
0.155305
0.160392
0.165539
0.170579
0.175382
0.0200992
0.024892
0.0299423
0.0351002
0.0401938
0.0452337
0.0502475
0.05525
0.0602502
0.0652504
0.0702507
0.0752508
0.0802509
0.0852509
0.0902509
0.0952509
0.100251
0.105251
0.110251
0.115251
0.120251
0.125251
0.130251
0.135251
0.140251
0.145254
0.150268
0.155308
0.160401
0.165559
0.17061
0.175403
0.0201198
0.0249236
0.0299644
0.0351142
0.0402058
0.0452435
0.0502526
0.0552475
0.0602462
0.0652478
0.0702495
0.0752504
0.0802507
0.0852509
0.0902509
0.0952509
0.100251
0.105251
0.110251
0.115251
0.120251
0.125252
0.130254
0.135255
0.140254
0.145248
0.150257
0.155295
0.160387
0.165537
0.170578
0.175382
0.0202167
0.025051
0.0300403
0.0351566
0.0402516
0.0452885
0.0502739
0.0552356
0.0602323
0.0652394
0.0702458
0.0752491
0.0802503
0.0852507
0.0902509
0.0952509
0.100251
0.105251
0.110251
0.115251
0.120253
0.125256
0.130262
0.135269
0.140265
0.145226
0.150211
0.155248
0.160344
0.165461
0.170451
0.175285
0.0203557
0.0253569
0.0301851
0.0352222
0.0402672
0.0453017
0.0502524
0.0552116
0.0601956
0.0652189
0.0702374
0.0752461
0.0802495
0.0852505
0.0902508
0.0952509
0.100251
0.105251
0.110251
0.115252
0.120256
0.125264
0.130282
0.135305
0.140288
0.145247
0.150198
0.155233
0.160279
0.165317
0.170145
0.175146
0.0501933
0.0551076
0.0601166
0.0651826
0.0702237
0.0752415
0.0802481
0.0852502
0.0902507
0.0952509
0.100251
0.105251
0.110252
0.115254
0.12026
0.125278
0.130319
0.135384
0.140391
0.145307
0.0501416
0.0549878
0.060029
0.0651437
0.0702092
0.0752367
0.0802467
0.0852498
0.0902506
0.0952509
0.100251
0.105251
0.110252
0.115255
0.120265
0.125292
0.130358
0.135472
0.140512
0.145359
0.0501154
0.054936
0.059981
0.0651207
0.0702004
0.0752338
0.0802458
0.0852496
0.0902506
0.0952508
0.100251
0.105251
0.110252
0.115256
0.120268
0.125301
0.130381
0.13552
0.140564
0.145386
0.0501154
0.054936
0.059981
0.0651207
0.0702004
0.0752338
0.0802458
0.0852496
0.0902506
0.0952508
0.100251
0.105251
0.110252
0.115256
0.120268
0.125301
0.130381
0.13552
0.140564
0.145386
0.0501416
0.0549878
0.060029
0.0651437
0.0702092
0.0752367
0.0802467
0.0852498
0.0902506
0.0952509
0.100251
0.105251
0.110252
0.115255
0.120265
0.125292
0.130358
0.135472
0.140512
0.145359
0.0501933
0.0551076
0.0601166
0.0651826
0.0702237
0.0752415
0.0802481
0.0852502
0.0902507
0.0952509
0.100251
0.105251
0.110252
0.115254
0.12026
0.125278
0.130319
0.135384
0.140391
0.145307
0.0203564
0.0253594
0.0301863
0.0352227
0.0402674
0.0453018
0.0502524
0.0552116
0.0601956
0.0652189
0.0702374
0.0752461
0.0802495
0.0852505
0.0902508
0.0952509
0.100251
0.105251
0.110251
0.115252
0.120256
0.125264
0.130282
0.135305
0.140288
0.145247
0.150198
0.155233
0.160279
0.165317
0.170145
0.175146
0.020218
0.0250529
0.0300419
0.0351574
0.040252
0.0452886
0.050274
0.0552356
0.0602323
0.0652394
0.0702458
0.0752491
0.0802503
0.0852507
0.0902509
0.0952509
0.100251
0.105251
0.110251
0.115251
0.120253
0.125256
0.130262
0.135269
0.140265
0.145226
0.150211
0.155248
0.160344
0.165461
0.170451
0.175285
0.0201196
0.0249233
0.0299649
0.0351145
0.040206
0.0452436
0.0502527
0.0552475
0.0602462
0.0652478
0.0702495
0.0752504
0.0802507
0.0852509
0.0902509
0.0952509
0.100251
0.105251
0.110251
0.115251
0.120251
0.125252
0.130254
0.135255
0.140254
0.145248
0.150257
0.155295
0.160387
0.165537
0.170578
0.175382
0.0200988
0.0248915
0.0299424
0.0351004
0.040194
0.0452338
0.0502476
0.05525
0.0602502
0.0652504
0.0702507
0.0752508
0.0802509
0.0852509
0.0902509
0.0952509
0.100251
0.105251
0.110251
0.115251
0.120251
0.125251
0.130251
0.135251
0.140251
0.145254
0.150268
0.155308
0.160401
0.165559
0.17061
0.175403
0.0201195
0.0249229
0.0299633
0.0351099
0.0401964
0.0452333
0.0502466
0.0552502
0.0602509
0.0652509
0.0702509
0.0752509
0.0802509
0.0852509
0.0902509
0.0952509
0.100251
0.105251
0.110251
0.115251
0.120251
0.125251
0.130251
0.135251
0.140252
0.145255
0.150268
0.155305
0.160392
0.165539
0.170579
0.175382
0.0202178
0.0250518
0.0300383
0.0351455
0.0402103
0.0452374
0.0502472
0.0552502
0.0602509
0.065251
0.0702509
0.0752509
0.0802509
0.0852509
0.0902509
0.0952509
0.100251
0.105251
0.110251
0.115251
0.120251
0.125251
0.130251
0.135251
0.140252
0.145255
0.150264
0.155292
0.160357
0.165465
0.170452
0.175285
0.020356
0.0253582
0.0301819
0.0352086
0.0402348
0.0452455
0.0502493
0.0552506
0.0602509
0.0652509
0.0702509
0.0752509
0.0802509
0.0852509
0.0902509
0.0952509
0.100251
0.105251
0.110251
0.115251
0.120251
0.125251
0.130251
0.135251
0.140251
0.145252
0.150256
0.155267
0.160294
0.165321
0.170146
0.175147
)
;
    }
    patch_3_0
    {
        type            calculated;
        value           nonuniform List<scalar> 
568
(
0.0203553
0.0253558
0.0301807
0.0352082
0.0402346
0.0452454
0.0502493
0.0552505
0.0602509
0.0652509
0.0702509
0.0752509
0.0802509
0.0852509
0.0902509
0.0952509
0.100251
0.105251
0.110251
0.115251
0.120251
0.125251
0.130251
0.135251
0.140251
0.145252
0.150256
0.155267
0.160294
0.165321
0.170146
0.175147
0.0202165
0.0250499
0.0300367
0.0351447
0.0402099
0.0452373
0.0502472
0.0552502
0.0602508
0.065251
0.0702509
0.0752509
0.0802509
0.0852509
0.0902509
0.0952509
0.100251
0.105251
0.110251
0.115251
0.120251
0.125251
0.130251
0.135251
0.140252
0.145255
0.150264
0.155292
0.160357
0.165465
0.170452
0.175285
0.0201197
0.0249231
0.0299628
0.0351095
0.0401962
0.0452332
0.0502465
0.0552502
0.0602509
0.0652509
0.0702509
0.0752509
0.0802509
0.0852509
0.0902509
0.0952509
0.100251
0.105251
0.110251
0.115251
0.120251
0.125251
0.130251
0.135251
0.140252
0.145255
0.150268
0.155305
0.160392
0.165539
0.170579
0.175382
0.0200992
0.024892
0.0299423
0.0351002
0.0401938
0.0452337
0.0502475
0.05525
0.0602502
0.0652504
0.0702507
0.0752508
0.0802509
0.0852509
0.0902509
0.0952509
0.100251
0.105251
0.110251
0.115251
0.120251
0.125251
0.130251
0.135251
0.140251
0.145254
0.150268
0.155308
0.160401
0.165559
0.17061
0.175403
0.0201198
0.0249235
0.0299644
0.0351142
0.0402058
0.0452435
0.0502526
0.0552475
0.0602462
0.0652478
0.0702495
0.0752504
0.0802507
0.0852509
0.0902509
0.0952509
0.100251
0.105251
0.110251
0.115251
0.120251
0.125252
0.130254
0.135255
0.140254
0.145248
0.150257
0.155295
0.160387
0.165537
0.170578
0.175382
0.0202167
0.025051
0.0300403
0.0351566
0.0402516
0.0452885
0.0502739
0.0552356
0.0602323
0.0652394
0.0702458
0.0752491
0.0802503
0.0852507
0.0902509
0.0952509
0.100251
0.105251
0.110251
0.115251
0.120253
0.125256
0.130262
0.135269
0.140265
0.145226
0.150211
0.155248
0.160344
0.165461
0.170451
0.175285
0.0203557
0.0253569
0.0301851
0.0352222
0.0402672
0.0453017
0.0502524
0.0552116
0.0601956
0.0652189
0.0702374
0.0752461
0.0802495
0.0852505
0.0902508
0.0952509
0.100251
0.105251
0.110251
0.115252
0.120256
0.125264
0.130282
0.135305
0.140288
0.145247
0.150198
0.155233
0.160279
0.165317
0.170145
0.175146
0.0501933
0.0551076
0.0601166
0.0651826
0.0702237
0.0752415
0.0802481
0.0852502
0.0902507
0.0952509
0.100251
0.105251
0.110252
0.115254
0.12026
0.125278
0.130319
0.135384
0.140391
0.145307
0.0501416
0.0549878
0.060029
0.0651437
0.0702092
0.0752367
0.0802467
0.0852498
0.0902506
0.0952509
0.100251
0.105251
0.110252
0.115255
0.120265
0.125292
0.130358
0.135472
0.140512
0.145359
0.0501154
0.054936
0.059981
0.0651207
0.0702004
0.0752338
0.0802458
0.0852496
0.0902506
0.0952508
0.100251
0.105251
0.110252
0.115256
0.120268
0.125301
0.130381
0.13552
0.140564
0.145386
0.0501154
0.054936
0.059981
0.0651207
0.0702004
0.0752338
0.0802458
0.0852496
0.0902506
0.0952508
0.100251
0.105251
0.110252
0.115256
0.120268
0.125301
0.130381
0.13552
0.140564
0.145386
0.0501416
0.0549878
0.060029
0.0651437
0.0702092
0.0752367
0.0802467
0.0852498
0.0902506
0.0952509
0.100251
0.105251
0.110252
0.115255
0.120265
0.125292
0.130358
0.135472
0.140512
0.145359
0.0501933
0.0551076
0.0601166
0.0651826
0.0702237
0.0752415
0.0802481
0.0852502
0.0902507
0.0952509
0.100251
0.105251
0.110252
0.115254
0.12026
0.125278
0.130319
0.135384
0.140391
0.145307
0.0203564
0.0253594
0.0301863
0.0352227
0.0402674
0.0453018
0.0502524
0.0552116
0.0601956
0.0652189
0.0702374
0.0752461
0.0802495
0.0852505
0.0902508
0.0952509
0.100251
0.105251
0.110251
0.115252
0.120256
0.125264
0.130282
0.135305
0.140288
0.145247
0.150198
0.155233
0.160279
0.165317
0.170145
0.175146
0.020218
0.0250529
0.0300419
0.0351574
0.040252
0.0452886
0.050274
0.0552356
0.0602323
0.0652394
0.0702458
0.0752491
0.0802503
0.0852507
0.0902509
0.0952509
0.100251
0.105251
0.110251
0.115251
0.120253
0.125256
0.130262
0.135269
0.140265
0.145226
0.150211
0.155248
0.160344
0.165461
0.170451
0.175285
0.0201196
0.0249233
0.0299649
0.0351145
0.040206
0.0452436
0.0502527
0.0552475
0.0602462
0.0652478
0.0702495
0.0752504
0.0802507
0.0852509
0.0902509
0.0952509
0.100251
0.105251
0.110251
0.115251
0.120251
0.125252
0.130254
0.135255
0.140254
0.145248
0.150257
0.155295
0.160387
0.165537
0.170578
0.175382
0.0200988
0.0248915
0.0299424
0.0351004
0.040194
0.0452338
0.0502476
0.05525
0.0602502
0.0652504
0.0702507
0.0752508
0.0802509
0.0852509
0.0902509
0.0952509
0.100251
0.105251
0.110251
0.115251
0.120251
0.125251
0.130251
0.135251
0.140251
0.145254
0.150268
0.155308
0.160401
0.165559
0.17061
0.175403
0.0201195
0.0249229
0.0299633
0.0351099
0.0401964
0.0452333
0.0502466
0.0552502
0.0602509
0.0652509
0.0702509
0.0752509
0.0802509
0.0852509
0.0902509
0.0952509
0.100251
0.105251
0.110251
0.115251
0.120251
0.125251
0.130251
0.135251
0.140252
0.145255
0.150268
0.155305
0.160392
0.165539
0.170579
0.175382
0.0202178
0.0250518
0.0300383
0.0351455
0.0402103
0.0452374
0.0502472
0.0552502
0.0602509
0.065251
0.0702509
0.0752509
0.0802509
0.0852509
0.0902509
0.0952509
0.100251
0.105251
0.110251
0.115251
0.120251
0.125251
0.130251
0.135251
0.140252
0.145255
0.150264
0.155292
0.160357
0.165465
0.170452
0.175285
0.020356
0.0253582
0.0301819
0.0352086
0.0402348
0.0452455
0.0502493
0.0552506
0.0602509
0.0652509
0.0702509
0.0752509
0.0802509
0.0852509
0.0902509
0.0952509
0.100251
0.105251
0.110251
0.115251
0.120251
0.125251
0.130251
0.135251
0.140251
0.145252
0.150256
0.155267
0.160294
0.165321
0.170146
0.175147
)
;
    }
    patch_4_0
    {
        type            calculated;
        value           nonuniform List<scalar> 
36
(
0.150243
0.155243
0.160254
0.165241
0.170005
0.175016
0.147751
0.147751
0.147751
0.147751
0.147751
0.147751
0.150243
0.155243
0.160254
0.165241
0.170005
0.175016
0.147751
0.147751
0.147751
0.147751
0.147751
0.147751
0.150243
0.155243
0.160254
0.165241
0.170005
0.175016
0.150243
0.155243
0.160254
0.165241
0.170005
0.175016
)
;
    }
    patch_5_0
    {
        type            calculated;
        value           nonuniform List<scalar> 
36
(
0.0204861
0.0254966
0.0302605
0.0352472
0.0402566
0.0452569
0.0204861
0.0254966
0.0302605
0.0352472
0.0402566
0.0452569
0.0477509
0.0477509
0.0477509
0.0477509
0.0477509
0.0204849
0.0254963
0.030262
0.0352478
0.0402568
0.0477509
0.045257
0.0477509
0.0477509
0.0477509
0.0477509
0.0477509
0.0204849
0.0254963
0.030262
0.0352478
0.0402568
0.0477509
0.045257
)
;
    }
}


// ************************************************************************* //
