/*--------------------------------*- C++ -*----------------------------------*\
| =========                 |                                                 |
| \\      /  F ield         | OpenFOAM: The Open Source CFD Toolbox           |
|  \\    /   O peration     | Version:  2406                                  |
|   \\  /    A nd           | Website:  www.openfoam.com                      |
|    \\/     M anipulation  |                                                 |
\*---------------------------------------------------------------------------*/
FoamFile
{
    version     2.0;
    format      ascii;
    arch        "LSB;label=32;scalar=64";
    class       volScalarField;
    location    "0";
    object      Cy;
}
// * * * * * * * * * * * * * * * * * * * * * * * * * * * * * * * * * * * * * //

dimensions      [0 1 0 0 0 0 0];

internalField   nonuniform List<scalar> 
1136
(
0.00244859
0.00229466
0.0021956
0.00216743
0.00215703
0.00215237
0.00215012
0.00214909
0.00214869
0.00214856
0.00214854
0.00214855
0.00214856
0.00214856
0.00214856
0.00214856
0.00214856
0.00214856
0.00214856
0.00214856
0.00214855
0.00214854
0.00214857
0.00214869
0.0021491
0.00215014
0.00215238
0.00215705
0.00216745
0.00219569
0.00229468
0.00244858
0.00744505
0.00709095
0.00697973
0.00693527
0.00691462
0.0069031
0.00689607
0.00689225
0.00689057
0.00689001
0.00688989
0.00688989
0.0068899
0.00688991
0.00688991
0.00688991
0.00688991
0.00688991
0.00688991
0.0068899
0.00688989
0.00688989
0.00689002
0.0068906
0.00689229
0.00689613
0.00690317
0.00691468
0.00693532
0.00697983
0.007091
0.00744497
0.0124261
0.0123018
0.0122322
0.0121968
0.0121729
0.0121521
0.0121356
0.0121259
0.0121216
0.0121201
0.0121198
0.0121198
0.0121198
0.0121198
0.0121198
0.0121198
0.0121198
0.0121198
0.0121198
0.0121198
0.0121198
0.0121198
0.0121201
0.0121217
0.012126
0.0121358
0.0121523
0.0121731
0.0121969
0.0122323
0.0123018
0.0124261
0.0174988
0.0174947
0.0174853
0.0174663
0.0174331
0.0173887
0.0173493
0.0173276
0.0173185
0.0173155
0.0173149
0.0173149
0.017315
0.017315
0.017315
0.017315
0.017315
0.017315
0.017315
0.017315
0.0173149
0.017315
0.0173156
0.0173186
0.0173279
0.0173498
0.0173892
0.0174336
0.0174666
0.0174855
0.0174948
0.0174989
0.0225715
0.0226873
0.0227363
0.0227276
0.0226693
0.022569
0.0224803
0.0224425
0.0224282
0.022424
0.0224233
0.0224234
0.0224235
0.0224236
0.0224236
0.0224236
0.0224236
0.0224236
0.0224236
0.0224236
0.0224234
0.0224234
0.0224242
0.0224286
0.0224431
0.0224812
0.02257
0.0226704
0.0227282
0.0227366
0.0226874
0.0225716
0.0275529
0.0278992
0.0279901
0.0279824
0.0278903
0.0276793
0.0275019
0.0274829
0.0274737
0.0274714
0.0274715
0.0274719
0.0274722
0.0274723
0.0274723
0.0274723
0.0274723
0.0274723
0.0274723
0.0274722
0.027472
0.0274716
0.0274717
0.0274742
0.0274837
0.0275024
0.027679
0.0278915
0.0279831
0.0279905
0.0278994
0.027553
0.0325506
0.0327011
0.0327908
0.0327906
0.0327351
0.0325917
0.0324751
0.0324456
0.0324812
0.0324877
0.0324896
0.0324905
0.0324909
0.0324911
0.0324911
0.0324911
0.0324911
0.0324911
0.0324911
0.032491
0.0324906
0.0324898
0.0324881
0.0324818
0.0324447
0.0324722
0.0325917
0.0327358
0.0327909
0.0327909
0.0327012
0.0325506
0.0374067
0.03745
0.0374854
0.0374933
0.0374957
0.0374968
0.0374973
0.0374974
0.0374974
0.0374974
0.0374974
0.0374974
0.0374974
0.0374973
0.0374969
0.0374959
0.0374937
0.0374861
0.0374489
0.0374069
0.0424544
0.0424693
0.0424897
0.0424959
0.042498
0.0424989
0.0424992
0.0424993
0.0424993
0.0424993
0.0424993
0.0424993
0.0424993
0.0424992
0.0424989
0.0424981
0.0424963
0.0424905
0.0424704
0.0424565
0.047489
0.0474926
0.0474966
0.0474986
0.0474994
0.0474997
0.0474998
0.0474999
0.0474999
0.0474999
0.0474999
0.0474999
0.0474999
0.0474998
0.0474997
0.0474994
0.0474987
0.0474968
0.047493
0.0474894
0.052511
0.0525074
0.0525034
0.0525014
0.0525006
0.0525003
0.0525002
0.0525001
0.0525001
0.0525001
0.0525001
0.0525001
0.0525001
0.0525002
0.0525003
0.0525006
0.0525013
0.0525032
0.052507
0.0525106
0.0575456
0.0575307
0.0575103
0.0575041
0.057502
0.0575011
0.0575008
0.0575007
0.0575007
0.0575007
0.0575007
0.0575007
0.0575007
0.0575008
0.0575011
0.0575019
0.0575037
0.0575095
0.0575296
0.0575435
0.0625933
0.06255
0.0625146
0.0625067
0.0625043
0.0625032
0.0625027
0.0625026
0.0625026
0.0625026
0.0625026
0.0625026
0.0625026
0.0625027
0.0625031
0.0625041
0.0625063
0.0625139
0.0625511
0.0625931
0.0674485
0.0672943
0.067209
0.0672094
0.067265
0.0674083
0.0675249
0.0675544
0.0675188
0.0675123
0.0675104
0.0675095
0.0675091
0.0675089
0.0675089
0.0675089
0.0675089
0.0675089
0.0675089
0.067509
0.0675094
0.0675102
0.0675119
0.0675182
0.0675553
0.0675278
0.0674083
0.0672642
0.0672091
0.0672091
0.0672988
0.0674494
0.0724427
0.072098
0.0720092
0.0720176
0.0721098
0.0723208
0.0724981
0.0725171
0.0725263
0.0725286
0.0725285
0.0725281
0.0725278
0.0725277
0.0725277
0.0725277
0.0725277
0.0725277
0.0725277
0.0725278
0.072528
0.0725284
0.0725283
0.0725258
0.0725163
0.0724976
0.072321
0.0721085
0.0720169
0.0720095
0.0721006
0.072447
0.0774275
0.0773123
0.0772634
0.0772724
0.0773307
0.077431
0.0775197
0.0775575
0.0775718
0.077576
0.0775767
0.0775766
0.0775765
0.0775764
0.0775764
0.0775764
0.0775764
0.0775764
0.0775764
0.0775765
0.0775766
0.0775766
0.0775758
0.0775714
0.0775569
0.0775188
0.07743
0.0773296
0.0772718
0.0772634
0.0773126
0.0774284
0.0825012
0.0825053
0.0825147
0.0825337
0.0825668
0.0826113
0.0826507
0.0826724
0.0826815
0.0826845
0.0826851
0.0826851
0.082685
0.082685
0.082685
0.082685
0.082685
0.082685
0.082685
0.082685
0.0826851
0.082685
0.0826844
0.0826814
0.0826721
0.0826502
0.0826108
0.0825664
0.0825334
0.0825145
0.0825052
0.0825011
0.0875749
0.0876987
0.0877681
0.0878032
0.087827
0.0878479
0.0878644
0.0878741
0.0878784
0.0878799
0.0878802
0.0878802
0.0878802
0.0878802
0.0878802
0.0878802
0.0878802
0.0878802
0.0878802
0.0878802
0.0878802
0.0878802
0.0878799
0.0878783
0.087874
0.0878642
0.0878477
0.0878269
0.0878031
0.0877677
0.0876982
0.0875739
0.0925594
0.0929118
0.0930209
0.0930647
0.0930853
0.0930968
0.0931039
0.0931077
0.0931094
0.09311
0.0931101
0.0931101
0.0931101
0.0931101
0.0931101
0.0931101
0.0931101
0.0931101
0.0931101
0.0931101
0.0931101
0.0931101
0.09311
0.0931094
0.0931077
0.0931039
0.0930968
0.0930853
0.0930647
0.0930202
0.092909
0.092555
0.0975524
0.0977099
0.0978046
0.0978326
0.0978429
0.0978476
0.0978499
0.0978509
0.0978513
0.0978514
0.0978515
0.0978515
0.0978514
0.0978514
0.0978514
0.0978514
0.0978514
0.0978514
0.0978514
0.0978514
0.0978515
0.0978515
0.0978514
0.0978513
0.0978509
0.0978499
0.0978476
0.097843
0.0978326
0.0978043
0.0977053
0.0975514
0.00244859
0.00229466
0.0021956
0.00216743
0.00215703
0.00215237
0.00215012
0.00214909
0.00214869
0.00214856
0.00214854
0.00214855
0.00214856
0.00214856
0.00214856
0.00214856
0.00214856
0.00214856
0.00214856
0.00214856
0.00214855
0.00214854
0.00214857
0.00214869
0.0021491
0.00215014
0.00215238
0.00215705
0.00216745
0.00219569
0.00229468
0.00244858
0.00744505
0.00709095
0.00697973
0.00693527
0.00691462
0.0069031
0.00689607
0.00689225
0.00689057
0.00689001
0.00688989
0.00688989
0.0068899
0.00688991
0.00688991
0.00688991
0.00688991
0.00688991
0.00688991
0.0068899
0.00688989
0.00688989
0.00689002
0.0068906
0.00689229
0.00689613
0.00690317
0.00691468
0.00693532
0.00697983
0.007091
0.00744497
0.0124261
0.0123018
0.0122322
0.0121968
0.0121729
0.0121521
0.0121356
0.0121259
0.0121216
0.0121201
0.0121198
0.0121198
0.0121198
0.0121198
0.0121198
0.0121198
0.0121198
0.0121198
0.0121198
0.0121198
0.0121198
0.0121198
0.0121201
0.0121217
0.012126
0.0121358
0.0121523
0.0121731
0.0121969
0.0122323
0.0123018
0.0124261
0.0174988
0.0174947
0.0174853
0.0174663
0.0174331
0.0173887
0.0173493
0.0173276
0.0173185
0.0173155
0.0173149
0.0173149
0.017315
0.017315
0.017315
0.017315
0.017315
0.017315
0.017315
0.017315
0.0173149
0.017315
0.0173156
0.0173186
0.0173279
0.0173498
0.0173892
0.0174336
0.0174666
0.0174855
0.0174948
0.0174989
0.0225715
0.0226873
0.0227363
0.0227276
0.0226693
0.022569
0.0224803
0.0224425
0.0224282
0.022424
0.0224233
0.0224234
0.0224235
0.0224236
0.0224236
0.0224236
0.0224236
0.0224236
0.0224236
0.0224236
0.0224234
0.0224234
0.0224242
0.0224286
0.0224431
0.0224812
0.02257
0.0226704
0.0227282
0.0227366
0.0226874
0.0225716
0.0275529
0.0278992
0.0279901
0.0279824
0.0278903
0.0276793
0.0275019
0.0274829
0.0274737
0.0274714
0.0274715
0.0274719
0.0274722
0.0274723
0.0274723
0.0274723
0.0274723
0.0274723
0.0274723
0.0274722
0.027472
0.0274716
0.0274717
0.0274742
0.0274837
0.0275024
0.027679
0.0278915
0.0279831
0.0279905
0.0278994
0.027553
0.0325506
0.0327011
0.0327908
0.0327906
0.0327351
0.0325917
0.0324751
0.0324456
0.0324812
0.0324877
0.0324896
0.0324905
0.0324909
0.0324911
0.0324911
0.0324911
0.0324911
0.0324911
0.0324911
0.032491
0.0324906
0.0324898
0.0324881
0.0324818
0.0324447
0.0324722
0.0325917
0.0327358
0.0327909
0.0327909
0.0327012
0.0325506
0.0374067
0.03745
0.0374854
0.0374933
0.0374957
0.0374968
0.0374973
0.0374974
0.0374974
0.0374974
0.0374974
0.0374974
0.0374974
0.0374973
0.0374969
0.0374959
0.0374937
0.0374861
0.0374489
0.0374069
0.0424544
0.0424693
0.0424897
0.0424959
0.042498
0.0424989
0.0424992
0.0424993
0.0424993
0.0424993
0.0424993
0.0424993
0.0424993
0.0424992
0.0424989
0.0424981
0.0424963
0.0424905
0.0424704
0.0424565
0.047489
0.0474926
0.0474966
0.0474986
0.0474994
0.0474997
0.0474998
0.0474999
0.0474999
0.0474999
0.0474999
0.0474999
0.0474999
0.0474998
0.0474997
0.0474994
0.0474987
0.0474968
0.047493
0.0474894
0.052511
0.0525074
0.0525034
0.0525014
0.0525006
0.0525003
0.0525002
0.0525001
0.0525001
0.0525001
0.0525001
0.0525001
0.0525001
0.0525002
0.0525003
0.0525006
0.0525013
0.0525032
0.052507
0.0525106
0.0575456
0.0575307
0.0575103
0.0575041
0.057502
0.0575011
0.0575008
0.0575007
0.0575007
0.0575007
0.0575007
0.0575007
0.0575007
0.0575008
0.0575011
0.0575019
0.0575037
0.0575095
0.0575296
0.0575435
0.0625933
0.06255
0.0625146
0.0625067
0.0625043
0.0625032
0.0625027
0.0625026
0.0625026
0.0625026
0.0625026
0.0625026
0.0625026
0.0625027
0.0625031
0.0625041
0.0625063
0.0625139
0.0625511
0.0625931
0.0674485
0.0672943
0.067209
0.0672094
0.067265
0.0674083
0.0675249
0.0675544
0.0675188
0.0675123
0.0675104
0.0675095
0.0675091
0.0675089
0.0675089
0.0675089
0.0675089
0.0675089
0.0675089
0.067509
0.0675094
0.0675102
0.0675119
0.0675182
0.0675553
0.0675278
0.0674083
0.0672642
0.0672091
0.0672091
0.0672988
0.0674494
0.0724427
0.072098
0.0720092
0.0720176
0.0721098
0.0723208
0.0724981
0.0725171
0.0725263
0.0725286
0.0725285
0.0725281
0.0725278
0.0725277
0.0725277
0.0725277
0.0725277
0.0725277
0.0725277
0.0725278
0.072528
0.0725284
0.0725283
0.0725258
0.0725163
0.0724976
0.072321
0.0721085
0.0720169
0.0720095
0.0721006
0.072447
0.0774275
0.0773123
0.0772634
0.0772724
0.0773307
0.077431
0.0775197
0.0775575
0.0775718
0.077576
0.0775767
0.0775766
0.0775765
0.0775764
0.0775764
0.0775764
0.0775764
0.0775764
0.0775764
0.0775765
0.0775766
0.0775766
0.0775758
0.0775714
0.0775569
0.0775188
0.07743
0.0773296
0.0772718
0.0772634
0.0773126
0.0774284
0.0825012
0.0825053
0.0825147
0.0825337
0.0825668
0.0826113
0.0826507
0.0826724
0.0826815
0.0826845
0.0826851
0.0826851
0.082685
0.082685
0.082685
0.082685
0.082685
0.082685
0.082685
0.082685
0.0826851
0.082685
0.0826844
0.0826814
0.0826721
0.0826502
0.0826108
0.0825664
0.0825334
0.0825145
0.0825052
0.0825011
0.0875749
0.0876987
0.0877681
0.0878032
0.087827
0.0878479
0.0878644
0.0878741
0.0878784
0.0878799
0.0878802
0.0878802
0.0878802
0.0878802
0.0878802
0.0878802
0.0878802
0.0878802
0.0878802
0.0878802
0.0878802
0.0878802
0.0878799
0.0878783
0.087874
0.0878642
0.0878477
0.0878269
0.0878031
0.0877677
0.0876982
0.0875739
0.0925594
0.0929118
0.0930209
0.0930647
0.0930853
0.0930968
0.0931039
0.0931077
0.0931094
0.09311
0.0931101
0.0931101
0.0931101
0.0931101
0.0931101
0.0931101
0.0931101
0.0931101
0.0931101
0.0931101
0.0931101
0.0931101
0.09311
0.0931094
0.0931077
0.0931039
0.0930968
0.0930853
0.0930647
0.0930202
0.092909
0.092555
0.0975524
0.0977099
0.0978046
0.0978326
0.0978429
0.0978476
0.0978499
0.0978509
0.0978513
0.0978514
0.0978515
0.0978515
0.0978514
0.0978514
0.0978514
0.0978514
0.0978514
0.0978514
0.0978514
0.0978514
0.0978515
0.0978515
0.0978514
0.0978513
0.0978509
0.0978499
0.0978476
0.097843
0.0978326
0.0978043
0.0977053
0.0975514
)
;

boundaryField
{
    patch_1_0
    {
        type            calculated;
        value           nonuniform List<scalar> 
184
(
0.00273407
0.00774535
0.0125102
0.0175
0.0224898
0.0272546
0.0322659
0.0677341
0.0727454
0.0775102
0.0825
0.0874898
0.0922546
0.1
0.1
0.1
0.1
0.1
0.1
0.1
0.1
0.1
0.1
0.1
0.1
0.1
0.1
0.1
0.1
0.1
0.1
0.1
0.1
0.1
0.1
0.1
0.1
0.1
0.1
0.1
0.1
0.1
0.1
0.1
0.0972659
0.1
0.00273407
0.00774535
0.0125102
0.0175
0.0224898
0.0272546
0.0322659
0.0677341
0.0727454
0.0775102
0.0825
0.0874898
0.0922546
0.1
0.1
0.1
0.1
0.1
0.1
0.1
0.1
0.1
0.1
0.1
0.1
0.1
0.1
0.1
0.1
0.1
0.1
0.1
0.1
0.1
0.1
0.1
0.1
0.1
0.1
0.1
0.1
0.1
0.1
0.1
0.0972659
0.1
0
0
0
0
0
0
0
0
0
0
0
0
0
0
0
0
0
0
0
0
0
0
0
0
0
0
0
0
0
0
0
0
0.00273407
0.00774535
0.0125102
0.0175
0.0224898
0.0272546
0.0322659
0.0677352
0.0727457
0.077509
0.0825
0.0874911
0.0922544
0.0972648
0
0
0
0
0
0
0
0
0
0
0
0
0
0
0
0
0
0
0
0
0
0
0
0
0
0
0
0
0
0
0
0
0.00273407
0.00774535
0.0125102
0.0175
0.0224898
0.0272546
0.0322659
0.0677352
0.0727457
0.077509
0.0825
0.0874911
0.0922544
0.0972648
)
;
    }
    patch_2_0
    {
        type            calculated;
        value           nonuniform List<scalar> 
568
(
0.00260564
0.00246775
0.00236617
0.00233399
0.00232181
0.00231648
0.00231402
0.00231294
0.00231255
0.00231245
0.00231244
0.00231245
0.00231246
0.00231246
0.00231247
0.00231247
0.00231247
0.00231247
0.00231246
0.00231246
0.00231245
0.00231244
0.00231245
0.00231256
0.00231295
0.00231403
0.00231649
0.00232183
0.002334
0.00236617
0.00246775
0.00260564
0.00761184
0.00731139
0.00718017
0.00713073
0.0071096
0.00709835
0.0070917
0.00708821
0.00708674
0.00708629
0.00708622
0.00708623
0.00708625
0.00708626
0.00708626
0.00708626
0.00708626
0.00708626
0.00708626
0.00708625
0.00708623
0.00708622
0.0070863
0.00708676
0.00708824
0.00709176
0.00709841
0.00710966
0.00713077
0.0071802
0.0073114
0.00761184
0.0124462
0.0123247
0.0122571
0.0122226
0.0122
0.0121806
0.0121653
0.0121564
0.0121526
0.0121514
0.0121511
0.0121512
0.0121512
0.0121512
0.0121512
0.0121512
0.0121512
0.0121512
0.0121512
0.0121512
0.0121512
0.0121512
0.0121514
0.0121527
0.0121565
0.0121655
0.0121808
0.0122002
0.0122227
0.0122572
0.0123248
0.0124462
0.0174989
0.0174952
0.0174867
0.0174688
0.0174374
0.0173953
0.0173581
0.0173375
0.0173291
0.0173265
0.0173261
0.0173261
0.0173262
0.0173262
0.0173262
0.0173262
0.0173262
0.0173262
0.0173262
0.0173262
0.0173261
0.0173261
0.0173266
0.0173292
0.0173378
0.0173586
0.0173959
0.0174379
0.0174691
0.0174869
0.0174953
0.0174989
0.0225514
0.022665
0.0227138
0.0227069
0.0226539
0.0225642
0.0224846
0.0224481
0.0224344
0.0224305
0.02243
0.0224302
0.0224303
0.0224303
0.0224304
0.0224304
0.0224304
0.0224304
0.0224304
0.0224303
0.0224302
0.0224301
0.0224307
0.0224347
0.0224487
0.0224857
0.0225654
0.0226549
0.0227075
0.0227141
0.0226652
0.0225514
0.027386
0.0276789
0.0277904
0.0277921
0.0277379
0.0276173
0.027513
0.027489
0.0274772
0.0274748
0.0274749
0.0274754
0.0274757
0.0274757
0.0274758
0.0274758
0.0274758
0.0274758
0.0274758
0.0274757
0.0274754
0.027475
0.0274751
0.0274778
0.0274903
0.0275151
0.0276199
0.0277401
0.0277932
0.0277909
0.0276791
0.027386
0.0323934
0.0325278
0.0326197
0.0326261
0.0326013
0.0325502
0.0324883
0.032464
0.0324846
0.0324895
0.0324912
0.0324921
0.0324925
0.0324926
0.0324926
0.0324926
0.0324926
0.0324926
0.0324926
0.0324925
0.0324921
0.0324913
0.03249
0.0324856
0.032466
0.0324909
0.0325521
0.0326025
0.0326267
0.03262
0.0325279
0.0323935
0.0374419
0.037445
0.0374858
0.0374942
0.0374964
0.0374974
0.0374978
0.037498
0.037498
0.037498
0.037498
0.037498
0.037498
0.0374979
0.0374975
0.0374966
0.0374947
0.0374869
0.0374475
0.0374437
0.0424677
0.0424573
0.0424888
0.0424963
0.0424982
0.0424991
0.0424994
0.0424995
0.0424995
0.0424995
0.0424995
0.0424995
0.0424995
0.0424994
0.0424991
0.0424984
0.0424966
0.0424897
0.0424592
0.0424688
0.0474902
0.047491
0.0474963
0.0474987
0.0474994
0.0474998
0.0474999
0.0474999
0.0474999
0.0474999
0.0474999
0.0474999
0.0474999
0.0474999
0.0474998
0.0474995
0.0474988
0.0474966
0.0474915
0.0474904
0.0525098
0.052509
0.0525037
0.0525013
0.0525006
0.0525002
0.0525001
0.0525001
0.0525001
0.0525001
0.0525001
0.0525001
0.0525001
0.0525001
0.0525002
0.0525005
0.0525012
0.0525034
0.0525085
0.0525096
0.0575323
0.0575427
0.0575112
0.0575037
0.0575018
0.0575009
0.0575006
0.0575005
0.0575005
0.0575005
0.0575005
0.0575005
0.0575005
0.0575006
0.0575009
0.0575016
0.0575034
0.0575103
0.0575408
0.0575312
0.0625581
0.062555
0.0625142
0.0625058
0.0625036
0.0625026
0.0625022
0.062502
0.062502
0.062502
0.062502
0.062502
0.062502
0.0625021
0.0625025
0.0625034
0.0625053
0.0625131
0.0625525
0.0625563
0.0676059
0.0674709
0.0673804
0.0673741
0.0673988
0.0674498
0.0675117
0.067536
0.0675154
0.0675105
0.0675088
0.0675079
0.0675075
0.0675074
0.0675074
0.0675074
0.0675074
0.0675074
0.0675074
0.0675075
0.0675079
0.0675087
0.06751
0.0675144
0.067534
0.0675091
0.0674479
0.0673975
0.0673733
0.06738
0.0674721
0.0676065
0.0726117
0.0723192
0.0722097
0.0722082
0.0722623
0.0723828
0.072487
0.072511
0.0725228
0.0725252
0.0725251
0.0725246
0.0725243
0.0725243
0.0725242
0.0725242
0.0725242
0.0725242
0.0725242
0.0725243
0.0725246
0.072525
0.0725249
0.0725222
0.0725097
0.0724849
0.0723801
0.0722599
0.0722068
0.0722091
0.0723209
0.072614
0.0774476
0.0773337
0.077286
0.0772931
0.0773462
0.0774358
0.0775154
0.0775519
0.0775656
0.0775695
0.07757
0.0775698
0.0775697
0.0775697
0.0775696
0.0775696
0.0775696
0.0775696
0.0775696
0.0775697
0.0775698
0.0775699
0.0775693
0.0775653
0.0775512
0.0775143
0.0774346
0.0773451
0.0772925
0.0772859
0.0773348
0.0774486
0.0825011
0.0825048
0.0825133
0.0825312
0.0825626
0.0826047
0.0826419
0.0826625
0.0826709
0.0826735
0.0826739
0.0826739
0.0826738
0.0826738
0.0826738
0.0826738
0.0826738
0.0826738
0.0826738
0.0826738
0.0826739
0.0826739
0.0826734
0.0826708
0.0826622
0.0826414
0.0826041
0.0825621
0.0825309
0.0825131
0.0825047
0.0825011
0.0875548
0.0876765
0.0877432
0.0877774
0.0877999
0.0878194
0.0878347
0.0878436
0.0878474
0.0878486
0.0878489
0.0878488
0.0878488
0.0878488
0.0878488
0.0878488
0.0878488
0.0878488
0.0878488
0.0878488
0.0878488
0.0878488
0.0878486
0.0878473
0.0878435
0.0878345
0.0878192
0.0877998
0.0877773
0.0877428
0.0876752
0.0875538
0.0923906
0.0926904
0.0928197
0.092869
0.0928902
0.0929016
0.0929083
0.0929118
0.0929133
0.0929137
0.0929138
0.0929138
0.0929138
0.0929137
0.0929137
0.0929137
0.0929137
0.0929137
0.0929137
0.0929138
0.0929138
0.0929138
0.0929137
0.0929132
0.0929118
0.0929082
0.0929016
0.0928903
0.0928692
0.0928198
0.0926886
0.0923882
0.0973951
0.0975335
0.0976337
0.0976658
0.0976781
0.0976835
0.097686
0.097687
0.0976874
0.0976876
0.0976876
0.0976876
0.0976875
0.0976875
0.0976875
0.0976875
0.0976875
0.0976875
0.0976875
0.0976875
0.0976876
0.0976876
0.0976876
0.0976874
0.097687
0.097686
0.0976835
0.0976782
0.097666
0.0976338
0.0975322
0.0973944
)
;
    }
    patch_3_0
    {
        type            calculated;
        value           nonuniform List<scalar> 
568
(
0.00260564
0.00246775
0.00236617
0.00233399
0.00232181
0.00231648
0.00231402
0.00231294
0.00231255
0.00231245
0.00231244
0.00231245
0.00231246
0.00231246
0.00231247
0.00231247
0.00231247
0.00231247
0.00231246
0.00231246
0.00231245
0.00231244
0.00231245
0.00231256
0.00231295
0.00231403
0.00231649
0.00232183
0.002334
0.00236617
0.00246775
0.00260564
0.00761184
0.00731139
0.00718017
0.00713073
0.0071096
0.00709835
0.0070917
0.00708821
0.00708674
0.00708629
0.00708622
0.00708623
0.00708625
0.00708626
0.00708626
0.00708626
0.00708626
0.00708626
0.00708626
0.00708625
0.00708623
0.00708622
0.0070863
0.00708676
0.00708824
0.00709176
0.00709841
0.00710966
0.00713077
0.0071802
0.0073114
0.00761184
0.0124462
0.0123247
0.0122571
0.0122226
0.0122
0.0121806
0.0121653
0.0121564
0.0121526
0.0121514
0.0121511
0.0121512
0.0121512
0.0121512
0.0121512
0.0121512
0.0121512
0.0121512
0.0121512
0.0121512
0.0121512
0.0121512
0.0121514
0.0121527
0.0121565
0.0121655
0.0121808
0.0122002
0.0122227
0.0122572
0.0123248
0.0124462
0.0174989
0.0174952
0.0174867
0.0174688
0.0174374
0.0173953
0.0173581
0.0173375
0.0173291
0.0173265
0.0173261
0.0173261
0.0173262
0.0173262
0.0173262
0.0173262
0.0173262
0.0173262
0.0173262
0.0173262
0.0173261
0.0173261
0.0173266
0.0173292
0.0173378
0.0173586
0.0173959
0.0174379
0.0174691
0.0174869
0.0174953
0.0174989
0.0225514
0.022665
0.0227138
0.0227069
0.0226539
0.0225642
0.0224846
0.0224481
0.0224344
0.0224305
0.02243
0.0224302
0.0224303
0.0224303
0.0224304
0.0224304
0.0224304
0.0224304
0.0224304
0.0224303
0.0224302
0.0224301
0.0224307
0.0224347
0.0224487
0.0224857
0.0225654
0.0226549
0.0227075
0.0227141
0.0226652
0.0225514
0.027386
0.0276789
0.0277904
0.0277921
0.0277379
0.0276173
0.027513
0.027489
0.0274772
0.0274748
0.0274749
0.0274754
0.0274757
0.0274757
0.0274758
0.0274758
0.0274758
0.0274758
0.0274758
0.0274757
0.0274754
0.027475
0.0274751
0.0274778
0.0274903
0.0275151
0.0276199
0.0277401
0.0277932
0.0277909
0.0276791
0.027386
0.0323934
0.0325278
0.0326197
0.0326261
0.0326013
0.0325502
0.0324883
0.032464
0.0324846
0.0324895
0.0324912
0.0324921
0.0324925
0.0324926
0.0324926
0.0324926
0.0324926
0.0324926
0.0324926
0.0324925
0.0324921
0.0324913
0.03249
0.0324856
0.032466
0.0324909
0.0325521
0.0326025
0.0326267
0.03262
0.0325279
0.0323935
0.0374419
0.037445
0.0374858
0.0374942
0.0374964
0.0374974
0.0374978
0.037498
0.037498
0.037498
0.037498
0.037498
0.037498
0.0374979
0.0374975
0.0374966
0.0374947
0.0374869
0.0374475
0.0374437
0.0424677
0.0424573
0.0424888
0.0424963
0.0424982
0.0424991
0.0424994
0.0424995
0.0424995
0.0424995
0.0424995
0.0424995
0.0424995
0.0424994
0.0424991
0.0424984
0.0424966
0.0424897
0.0424592
0.0424688
0.0474902
0.047491
0.0474963
0.0474987
0.0474994
0.0474998
0.0474999
0.0474999
0.0474999
0.0474999
0.0474999
0.0474999
0.0474999
0.0474999
0.0474998
0.0474995
0.0474988
0.0474966
0.0474915
0.0474904
0.0525098
0.052509
0.0525037
0.0525013
0.0525006
0.0525002
0.0525001
0.0525001
0.0525001
0.0525001
0.0525001
0.0525001
0.0525001
0.0525001
0.0525002
0.0525005
0.0525012
0.0525034
0.0525085
0.0525096
0.0575323
0.0575427
0.0575112
0.0575037
0.0575018
0.0575009
0.0575006
0.0575005
0.0575005
0.0575005
0.0575005
0.0575005
0.0575005
0.0575006
0.0575009
0.0575016
0.0575034
0.0575103
0.0575408
0.0575312
0.0625581
0.062555
0.0625142
0.0625058
0.0625036
0.0625026
0.0625022
0.062502
0.062502
0.062502
0.062502
0.062502
0.062502
0.0625021
0.0625025
0.0625034
0.0625053
0.0625131
0.0625525
0.0625563
0.0676059
0.0674709
0.0673804
0.0673741
0.0673988
0.0674498
0.0675117
0.067536
0.0675154
0.0675105
0.0675088
0.0675079
0.0675075
0.0675074
0.0675074
0.0675074
0.0675074
0.0675074
0.0675074
0.0675075
0.0675079
0.0675087
0.06751
0.0675144
0.067534
0.0675091
0.0674479
0.0673975
0.0673733
0.06738
0.0674721
0.0676065
0.0726117
0.0723192
0.0722097
0.0722082
0.0722623
0.0723828
0.072487
0.072511
0.0725228
0.0725252
0.0725251
0.0725246
0.0725243
0.0725243
0.0725242
0.0725242
0.0725242
0.0725242
0.0725242
0.0725243
0.0725246
0.072525
0.0725249
0.0725222
0.0725097
0.0724849
0.0723801
0.0722599
0.0722068
0.0722091
0.0723209
0.072614
0.0774476
0.0773337
0.077286
0.0772931
0.0773462
0.0774358
0.0775154
0.0775519
0.0775656
0.0775695
0.07757
0.0775698
0.0775697
0.0775697
0.0775696
0.0775696
0.0775696
0.0775696
0.0775696
0.0775697
0.0775698
0.0775699
0.0775693
0.0775653
0.0775512
0.0775143
0.0774346
0.0773451
0.0772925
0.0772859
0.0773348
0.0774486
0.0825011
0.0825048
0.0825133
0.0825312
0.0825626
0.0826047
0.0826419
0.0826625
0.0826709
0.0826735
0.0826739
0.0826739
0.0826738
0.0826738
0.0826738
0.0826738
0.0826738
0.0826738
0.0826738
0.0826738
0.0826739
0.0826739
0.0826734
0.0826708
0.0826622
0.0826414
0.0826041
0.0825621
0.0825309
0.0825131
0.0825047
0.0825011
0.0875548
0.0876765
0.0877432
0.0877774
0.0877999
0.0878194
0.0878347
0.0878436
0.0878474
0.0878486
0.0878489
0.0878488
0.0878488
0.0878488
0.0878488
0.0878488
0.0878488
0.0878488
0.0878488
0.0878488
0.0878488
0.0878488
0.0878486
0.0878473
0.0878435
0.0878345
0.0878192
0.0877998
0.0877773
0.0877428
0.0876752
0.0875538
0.0923906
0.0926904
0.0928197
0.092869
0.0928902
0.0929016
0.0929083
0.0929118
0.0929133
0.0929137
0.0929138
0.0929138
0.0929138
0.0929137
0.0929137
0.0929137
0.0929137
0.0929137
0.0929137
0.0929138
0.0929138
0.0929138
0.0929137
0.0929132
0.0929118
0.0929082
0.0929016
0.0928903
0.0928692
0.0928198
0.0926886
0.0923882
0.0973951
0.0975335
0.0976337
0.0976658
0.0976781
0.0976835
0.097686
0.097687
0.0976874
0.0976876
0.0976876
0.0976876
0.0976875
0.0976875
0.0976875
0.0976875
0.0976875
0.0976875
0.0976875
0.0976875
0.0976876
0.0976876
0.0976876
0.0976874
0.097687
0.097686
0.0976835
0.0976782
0.097666
0.0976338
0.0975322
0.0973944
)
;
    }
    patch_4_0
    {
        type            calculated;
        value           nonuniform List<scalar> 
36
(
0.035
0.035
0.035
0.035
0.035
0.035
0.0374937
0.0424931
0.0474994
0.0525006
0.0575069
0.0625063
0.035
0.035
0.035
0.035
0.035
0.035
0.0374937
0.0424931
0.0474994
0.0525006
0.0575069
0.0625063
0.065
0.065
0.065
0.065
0.065
0.065
0.065
0.065
0.065
0.065
0.065
0.065
)
;
    }
    patch_5_0
    {
        type            calculated;
        value           nonuniform List<scalar> 
36
(
0.035
0.035
0.035
0.035
0.035
0.035
0.035
0.035
0.035
0.035
0.035
0.035
0.0374914
0.0424904
0.0474991
0.0525009
0.0575096
0.065
0.065
0.065
0.065
0.065
0.0625086
0.065
0.0374914
0.0424904
0.0474991
0.0525009
0.0575096
0.065
0.065
0.065
0.065
0.065
0.0625086
0.065
)
;
    }
}


// ************************************************************************* //
