/*--------------------------------*- C++ -*----------------------------------*\
| =========                 |                                                 |
| \\      /  F ield         | OpenFOAM: The Open Source CFD Toolbox           |
|  \\    /   O peration     | Version:  2406                                  |
|   \\  /    A nd           | Website:  www.openfoam.com                      |
|    \\/     M anipulation  |                                                 |
\*---------------------------------------------------------------------------*/
FoamFile
{
    version     2.0;
    format      ascii;
    arch        "LSB;label=32;scalar=64";
    class       volScalarField;
    location    "0";
    object      Cz;
}
// * * * * * * * * * * * * * * * * * * * * * * * * * * * * * * * * * * * * * //

dimensions      [0 1 0 0 0 0 0];

internalField   nonuniform List<scalar> 
1136
(
0.00240155
0.00247605
0.00243931
0.0024349
0.00243469
0.00243469
0.00243467
0.00243464
0.00243461
0.0024346
0.00243459
0.00243459
0.00243459
0.00243459
0.00243459
0.00243459
0.00243459
0.00243459
0.00243459
0.00243459
0.00243459
0.00243459
0.0024346
0.00243461
0.00243464
0.00243467
0.00243469
0.00243469
0.00243491
0.00243935
0.00247605
0.00240155
0.0024745
0.00260701
0.00255463
0.00254703
0.0025465
0.00254631
0.00254617
0.00254609
0.00254604
0.00254601
0.00254601
0.002546
0.002546
0.002546
0.002546
0.002546
0.002546
0.002546
0.002546
0.002546
0.002546
0.00254601
0.00254601
0.00254604
0.00254609
0.00254618
0.00254631
0.00254651
0.00254703
0.00255462
0.00260697
0.00247451
0.00243908
0.00255508
0.00251224
0.00250661
0.00250635
0.00250611
0.00250588
0.00250574
0.00250567
0.00250564
0.00250562
0.00250562
0.00250561
0.00250561
0.00250561
0.00250561
0.00250561
0.00250561
0.00250561
0.00250561
0.00250562
0.00250562
0.00250564
0.00250567
0.00250574
0.00250588
0.00250611
0.00250635
0.00250661
0.00251224
0.00255509
0.00243909
0.00243476
0.00254781
0.00250693
0.0025019
0.00250174
0.0025014
0.00250094
0.00250087
0.00250085
0.00250083
0.00250082
0.00250081
0.0025008
0.0025008
0.0025008
0.0025008
0.0025008
0.0025008
0.0025008
0.0025008
0.00250081
0.00250082
0.00250083
0.00250085
0.00250087
0.00250094
0.00250138
0.00250174
0.0025019
0.00250693
0.00254781
0.00243476
0.00243912
0.00255515
0.00251237
0.00250658
0.00250548
0.00250344
0.00250029
0.00250043
0.0025006
0.00250069
0.00250069
0.00250068
0.00250067
0.00250066
0.00250066
0.00250066
0.00250066
0.00250066
0.00250066
0.00250067
0.00250068
0.00250069
0.00250069
0.0025006
0.00250043
0.0025003
0.00250331
0.00250546
0.00250657
0.00251236
0.00255514
0.00243912
0.00247455
0.00260709
0.00255501
0.00254672
0.00253793
0.0025212
0.00249364
0.00249838
0.00250016
0.00250044
0.0025005
0.00250048
0.00250046
0.00250044
0.00250043
0.00250043
0.00250043
0.00250043
0.00250044
0.00250046
0.00250048
0.0025005
0.00250043
0.00250016
0.00249838
0.0024938
0.00251975
0.00253751
0.00254661
0.00255498
0.00260708
0.00247455
0.00240158
0.00247622
0.00243996
0.00243663
0.00245102
0.00248728
0.00249544
0.00249348
0.00249972
0.0025002
0.00250036
0.00250033
0.00250028
0.00250024
0.00250023
0.00250022
0.00250022
0.00250023
0.00250024
0.00250028
0.00250032
0.00250036
0.0025002
0.00249972
0.00249333
0.00249543
0.00248701
0.00245159
0.00243677
0.00243999
0.00247623
0.00240158
0.0024868
0.00251921
0.00250252
0.00250038
0.00250035
0.00250026
0.00250018
0.00250013
0.00250011
0.0025001
0.0025001
0.00250011
0.00250013
0.00250018
0.00250026
0.00250035
0.0025004
0.00250264
0.00252067
0.00248705
0.00245149
0.00253704
0.00250455
0.00250056
0.0025004
0.00250027
0.00250015
0.00250008
0.00250005
0.00250004
0.00250004
0.00250005
0.00250008
0.00250015
0.00250027
0.0025004
0.00250056
0.00250458
0.00253748
0.00245093
0.00243687
0.00254588
0.00250552
0.00250063
0.00250044
0.00250029
0.00250015
0.00250007
0.00250003
0.00250002
0.00250002
0.00250003
0.00250007
0.00250015
0.00250029
0.00250044
0.00250063
0.00250554
0.00254602
0.0024367
0.00243687
0.00254588
0.00250552
0.00250063
0.00250044
0.00250029
0.00250015
0.00250007
0.00250003
0.00250002
0.00250002
0.00250003
0.00250007
0.00250015
0.00250029
0.00250044
0.00250063
0.00250554
0.00254602
0.0024367
0.00245149
0.00253704
0.00250455
0.00250056
0.0025004
0.00250027
0.00250015
0.00250008
0.00250005
0.00250004
0.00250004
0.00250005
0.00250008
0.00250015
0.00250027
0.0025004
0.00250056
0.00250458
0.00253748
0.00245093
0.0024868
0.00251921
0.00250252
0.00250038
0.00250035
0.00250026
0.00250018
0.00250013
0.00250011
0.0025001
0.0025001
0.00250011
0.00250013
0.00250018
0.00250026
0.00250035
0.0025004
0.00250264
0.00252067
0.00248705
0.00240158
0.00247477
0.00243984
0.00243649
0.00245098
0.00248726
0.00249544
0.00249348
0.00249972
0.0025002
0.00250036
0.00250033
0.00250028
0.00250024
0.00250023
0.00250022
0.00250022
0.00250023
0.00250024
0.00250028
0.00250032
0.00250036
0.0025002
0.00249972
0.00249333
0.00249543
0.00248702
0.00245159
0.00243677
0.00243999
0.00247623
0.00240158
0.00247603
0.00260713
0.0025554
0.0025468
0.00253795
0.0025212
0.00249365
0.00249838
0.00250016
0.00250044
0.0025005
0.00250048
0.00250046
0.00250044
0.00250043
0.00250043
0.00250043
0.00250043
0.00250044
0.00250046
0.00250048
0.0025005
0.00250043
0.00250016
0.00249838
0.0024938
0.00251975
0.00253751
0.00254661
0.00255498
0.00260708
0.00247455
0.00243924
0.00255474
0.00251237
0.0025066
0.00250548
0.00250344
0.00250029
0.00250043
0.0025006
0.00250069
0.00250069
0.00250068
0.00250067
0.00250066
0.00250066
0.00250065
0.00250065
0.00250066
0.00250066
0.00250067
0.00250068
0.00250069
0.00250069
0.0025006
0.00250043
0.0025003
0.00250331
0.00250546
0.00250657
0.00251236
0.00255514
0.00243912
0.00243503
0.00254765
0.00250691
0.0025019
0.00250173
0.0025014
0.00250094
0.00250087
0.00250085
0.00250083
0.00250082
0.00250081
0.0025008
0.0025008
0.0025008
0.0025008
0.0025008
0.0025008
0.0025008
0.0025008
0.00250081
0.00250082
0.00250083
0.00250085
0.00250087
0.00250094
0.00250138
0.00250173
0.00250189
0.00250693
0.00254781
0.00243476
0.00243925
0.00255468
0.00251224
0.00250662
0.00250636
0.00250612
0.00250588
0.00250574
0.00250567
0.00250564
0.00250562
0.00250562
0.00250561
0.00250561
0.00250561
0.00250561
0.00250561
0.00250561
0.00250561
0.00250561
0.00250562
0.00250562
0.00250564
0.00250567
0.00250574
0.00250588
0.00250611
0.00250635
0.00250661
0.00251224
0.00255509
0.00243909
0.00247598
0.00260697
0.00255501
0.00254711
0.00254652
0.00254631
0.00254618
0.00254609
0.00254604
0.00254601
0.00254601
0.002546
0.002546
0.002546
0.002546
0.002546
0.002546
0.002546
0.002546
0.002546
0.002546
0.00254601
0.00254601
0.00254604
0.00254609
0.00254618
0.00254631
0.0025465
0.00254703
0.00255462
0.00260697
0.00247451
0.00240155
0.0024746
0.00243924
0.00243477
0.00243463
0.00243467
0.00243466
0.00243463
0.00243461
0.0024346
0.00243459
0.00243459
0.00243459
0.00243459
0.00243459
0.00243459
0.00243459
0.00243459
0.00243459
0.00243459
0.00243459
0.00243459
0.0024346
0.00243461
0.00243464
0.00243467
0.00243469
0.00243469
0.00243491
0.00243935
0.00247605
0.00240155
0.00759845
0.00752395
0.00756069
0.0075651
0.00756531
0.00756531
0.00756533
0.00756536
0.00756539
0.0075654
0.00756541
0.00756541
0.00756541
0.00756541
0.00756541
0.00756541
0.00756541
0.00756541
0.00756541
0.00756541
0.00756541
0.00756541
0.0075654
0.00756539
0.00756536
0.00756533
0.00756531
0.00756531
0.00756509
0.00756065
0.00752395
0.00759845
0.0075255
0.00739299
0.00744537
0.00745297
0.00745349
0.00745369
0.00745383
0.00745391
0.00745396
0.00745399
0.00745399
0.007454
0.007454
0.007454
0.007454
0.007454
0.007454
0.007454
0.007454
0.007454
0.007454
0.00745399
0.00745399
0.00745396
0.00745391
0.00745382
0.00745369
0.00745349
0.00745297
0.00744538
0.00739303
0.00752549
0.00756092
0.00744492
0.00748776
0.00749339
0.00749365
0.00749389
0.00749412
0.00749426
0.00749433
0.00749436
0.00749438
0.00749438
0.00749439
0.00749439
0.00749439
0.00749439
0.00749439
0.00749439
0.00749439
0.00749439
0.00749438
0.00749438
0.00749436
0.00749433
0.00749426
0.00749412
0.00749389
0.00749365
0.00749339
0.00748776
0.00744491
0.00756091
0.00756524
0.00745219
0.00749307
0.0074981
0.00749826
0.0074986
0.00749906
0.00749913
0.00749915
0.00749917
0.00749918
0.00749919
0.0074992
0.0074992
0.0074992
0.0074992
0.0074992
0.0074992
0.0074992
0.0074992
0.00749919
0.00749918
0.00749917
0.00749915
0.00749913
0.00749906
0.00749862
0.00749826
0.0074981
0.00749307
0.00745219
0.00756524
0.00756088
0.00744485
0.00748763
0.00749341
0.00749452
0.00749656
0.00749971
0.00749957
0.0074994
0.00749931
0.00749931
0.00749932
0.00749933
0.00749934
0.00749934
0.00749934
0.00749934
0.00749934
0.00749934
0.00749933
0.00749932
0.00749931
0.00749931
0.0074994
0.00749957
0.0074997
0.00749669
0.00749454
0.00749343
0.00748764
0.00744486
0.00756088
0.00752545
0.00739291
0.00744499
0.00745328
0.00746207
0.0074788
0.00750635
0.00750162
0.00749984
0.00749956
0.0074995
0.00749952
0.00749954
0.00749956
0.00749957
0.00749957
0.00749957
0.00749957
0.00749956
0.00749954
0.00749952
0.0074995
0.00749957
0.00749984
0.00750162
0.0075062
0.00748025
0.00746249
0.00745339
0.00744502
0.00739292
0.00752545
0.00759842
0.00752378
0.00756004
0.00756337
0.00754898
0.00751272
0.00750456
0.00750652
0.00750028
0.0074998
0.00749964
0.00749967
0.00749972
0.00749976
0.00749977
0.00749978
0.00749978
0.00749977
0.00749976
0.00749972
0.00749968
0.00749964
0.0074998
0.00750028
0.00750667
0.00750457
0.00751299
0.00754841
0.00756323
0.00756001
0.00752377
0.00759842
0.0075132
0.00748079
0.00749748
0.00749962
0.00749965
0.00749973
0.00749982
0.00749987
0.00749989
0.0074999
0.0074999
0.00749989
0.00749987
0.00749982
0.00749974
0.00749965
0.0074996
0.00749736
0.00747933
0.00751295
0.00754851
0.00746296
0.00749545
0.00749944
0.0074996
0.00749973
0.00749985
0.00749992
0.00749995
0.00749996
0.00749996
0.00749995
0.00749992
0.00749985
0.00749973
0.0074996
0.00749944
0.00749542
0.00746252
0.00754907
0.00756313
0.00745412
0.00749448
0.00749937
0.00749956
0.00749971
0.00749985
0.00749993
0.00749997
0.00749998
0.00749998
0.00749997
0.00749993
0.00749985
0.00749971
0.00749956
0.00749937
0.00749446
0.00745398
0.0075633
0.00756313
0.00745412
0.00749448
0.00749937
0.00749956
0.00749971
0.00749985
0.00749993
0.00749997
0.00749998
0.00749998
0.00749997
0.00749993
0.00749985
0.00749971
0.00749956
0.00749937
0.00749446
0.00745398
0.0075633
0.00754851
0.00746296
0.00749545
0.00749944
0.0074996
0.00749973
0.00749985
0.00749992
0.00749995
0.00749996
0.00749996
0.00749995
0.00749992
0.00749985
0.00749973
0.0074996
0.00749944
0.00749542
0.00746252
0.00754907
0.0075132
0.00748079
0.00749748
0.00749962
0.00749965
0.00749973
0.00749982
0.00749987
0.00749989
0.0074999
0.0074999
0.00749989
0.00749987
0.00749982
0.00749974
0.00749965
0.0074996
0.00749736
0.00747933
0.00751295
0.00759842
0.00752523
0.00756016
0.00756351
0.00754902
0.00751274
0.00750456
0.00750652
0.00750028
0.0074998
0.00749964
0.00749967
0.00749972
0.00749976
0.00749977
0.00749978
0.00749978
0.00749977
0.00749976
0.00749972
0.00749967
0.00749964
0.0074998
0.00750028
0.00750667
0.00750457
0.00751298
0.00754841
0.00756323
0.00756001
0.00752377
0.00759842
0.00752397
0.00739287
0.0074446
0.0074532
0.00746205
0.0074788
0.00750635
0.00750162
0.00749984
0.00749956
0.0074995
0.00749952
0.00749954
0.00749956
0.00749957
0.00749957
0.00749957
0.00749957
0.00749956
0.00749954
0.00749952
0.0074995
0.00749957
0.00749984
0.00750162
0.0075062
0.00748025
0.00746249
0.00745339
0.00744502
0.00739292
0.00752545
0.00756076
0.00744526
0.00748763
0.0074934
0.00749452
0.00749656
0.00749971
0.00749957
0.0074994
0.00749931
0.00749931
0.00749932
0.00749933
0.00749934
0.00749934
0.00749934
0.00749934
0.00749934
0.00749934
0.00749933
0.00749932
0.00749931
0.00749931
0.0074994
0.00749957
0.0074997
0.00749669
0.00749454
0.00749343
0.00748764
0.00744486
0.00756088
0.00756497
0.00745235
0.00749309
0.0074981
0.00749827
0.0074986
0.00749906
0.00749913
0.00749915
0.00749917
0.00749918
0.00749919
0.0074992
0.0074992
0.0074992
0.0074992
0.0074992
0.0074992
0.0074992
0.0074992
0.00749919
0.00749918
0.00749917
0.00749915
0.00749913
0.00749906
0.00749862
0.00749827
0.00749811
0.00749307
0.00745219
0.00756524
0.00756075
0.00744532
0.00748776
0.00749338
0.00749364
0.00749388
0.00749412
0.00749426
0.00749433
0.00749436
0.00749438
0.00749438
0.00749439
0.00749439
0.00749439
0.00749439
0.00749439
0.00749439
0.00749439
0.00749439
0.00749438
0.00749438
0.00749436
0.00749433
0.00749426
0.00749412
0.00749388
0.00749365
0.00749339
0.00748776
0.00744491
0.00756091
0.00752402
0.00739303
0.00744499
0.00745289
0.00745348
0.00745369
0.00745382
0.00745391
0.00745396
0.00745399
0.00745399
0.007454
0.007454
0.007454
0.007454
0.007454
0.007454
0.007454
0.007454
0.007454
0.007454
0.00745399
0.00745399
0.00745396
0.00745391
0.00745382
0.00745369
0.00745349
0.00745297
0.00744538
0.00739303
0.00752549
0.00759844
0.0075254
0.00756076
0.00756523
0.00756537
0.00756533
0.00756534
0.00756537
0.00756539
0.0075654
0.00756541
0.00756541
0.00756541
0.00756541
0.00756541
0.00756541
0.00756541
0.00756541
0.00756541
0.00756541
0.00756541
0.00756541
0.0075654
0.00756539
0.00756536
0.00756533
0.00756531
0.00756531
0.00756509
0.00756065
0.00752395
0.00759845
)
;

boundaryField
{
    patch_1_0
    {
        type            calculated;
        value           nonuniform List<scalar> 
184
(
0.00246971
0.00252876
0.00250569
0.00250242
0.00250569
0.00252877
0.00246971
0.00246971
0.00252877
0.00250569
0.00250242
0.00250569
0.00252876
0.00246967
0.00252864
0.00250534
0.00250121
0.00250034
0.00250011
0.00250004
0.00250001
0.0025
0.0025
0.0025
0.0025
0.0025
0.0025
0.0025
0.0025
0.0025
0.0025
0.0025
0.0025
0.0025
0.0025
0.0025
0.0025
0.00250001
0.00250004
0.00250013
0.00250039
0.00250132
0.0025055
0.0025279
0.00246971
0.00247003
0.00753029
0.00747124
0.00749431
0.00749758
0.00749431
0.00747123
0.00753029
0.00753029
0.00747123
0.00749431
0.00749758
0.00749431
0.00747124
0.00753033
0.00747136
0.00749466
0.00749879
0.00749966
0.00749989
0.00749996
0.00749999
0.0075
0.0075
0.0075
0.0075
0.0075
0.0075
0.0075
0.0075
0.0075
0.0075
0.0075
0.0075
0.0075
0.0075
0.0075
0.0075
0.00749999
0.00749996
0.00749987
0.00749961
0.00749868
0.0074945
0.0074721
0.00753029
0.00752997
0.00247003
0.0025279
0.0025055
0.00250132
0.00250039
0.00250013
0.00250004
0.00250001
0.0025
0.0025
0.0025
0.0025
0.0025
0.0025
0.0025
0.0025
0.0025
0.0025
0.0025
0.0025
0.0025
0.0025
0.0025
0.0025
0.00250001
0.00250004
0.00250013
0.00250039
0.00250132
0.0025055
0.0025279
0.00247003
0.00246971
0.00252876
0.00250569
0.00250242
0.00250569
0.00252877
0.00246971
0.00247008
0.00252804
0.00250589
0.00250263
0.00250588
0.00252804
0.00247008
0.00752997
0.0074721
0.0074945
0.00749868
0.00749961
0.00749987
0.00749996
0.00749999
0.0075
0.0075
0.0075
0.0075
0.0075
0.0075
0.0075
0.0075
0.0075
0.0075
0.0075
0.0075
0.0075
0.0075
0.0075
0.0075
0.00749999
0.00749996
0.00749987
0.00749961
0.00749868
0.0074945
0.0074721
0.00752997
0.00753029
0.00747124
0.00749431
0.00749758
0.00749431
0.00747123
0.00753029
0.00752992
0.00747196
0.00749411
0.00749737
0.00749412
0.00747196
0.00752992
)
;
    }
    patch_2_0
    {
        type            calculated;
        value           uniform 0;
    }
    patch_3_0
    {
        type            calculated;
        value           nonuniform List<scalar> 
568
(
0.01
0.01
0.01
0.01
0.01
0.01
0.01
0.01
0.01
0.01
0.01
0.01
0.01
0.01
0.01
0.01
0.01
0.01
0.01
0.01
0.01
0.01
0.01
0.01
0.01
0.01
0.01
0.01
0.01
0.01
0.01
0.01
0.01
0.01
0.01
0.01
0.01
0.01
0.01
0.01
0.01
0.01
0.01
0.01
0.01
0.01
0.01
0.01
0.01
0.01
0.01
0.01
0.01
0.01
0.01
0.01
0.01
0.01
0.01
0.01
0.01
0.01
0.01
0.01
0.01
0.01
0.01
0.01
0.01
0.01
0.01
0.01
0.01
0.01
0.01
0.01
0.01
0.01
0.01
0.01
0.01
0.01
0.01
0.01
0.01
0.01
0.01
0.01
0.01
0.01
0.01
0.01
0.01
0.01
0.01
0.01
0.01
0.01
0.01
0.01
0.01
0.01
0.01
0.01
0.01
0.01
0.01
0.01
0.01
0.01
0.01
0.01
0.01
0.01
0.01
0.01
0.01
0.01
0.01
0.01
0.01
0.01
0.01
0.01
0.01
0.01
0.01
0.01
0.01
0.01
0.01
0.01
0.01
0.01
0.01
0.01
0.01
0.01
0.01
0.01
0.01
0.01
0.01
0.01
0.01
0.01
0.01
0.01
0.01
0.01
0.01
0.01
0.01
0.01
0.01
0.01
0.01
0.01
0.01
0.01
0.01
0.01
0.01
0.01
0.01
0.01
0.01
0.01
0.01
0.01
0.01
0.01
0.01
0.01
0.01
0.01
0.01
0.01
0.01
0.01
0.01
0.01
0.01
0.01
0.01
0.01
0.01
0.01
0.01
0.01
0.01
0.01
0.01
0.01
0.01
0.01
0.01
0.01
0.01
0.01
0.01
0.01
0.01
0.01
0.01
0.01
0.01
0.01
0.01
0.01
0.01
0.01
0.01
0.01
0.01
0.01
0.01
0.01
0.01
0.01
0.01
0.01
0.01
0.01
0.01
0.01
0.01
0.01
0.01
0.01
0.01
0.01
0.01
0.01
0.01
0.01
0.01
0.01
0.01
0.01
0.01
0.01
0.01
0.01
0.01
0.01
0.01
0.01
0.01
0.01
0.01
0.01
0.01
0.01
0.01
0.01
0.01
0.01
0.01
0.01
0.01
0.01
0.01
0.01
0.01
0.01
0.01
0.01
0.01
0.01
0.01
0.01
0.01
0.01
0.01
0.01
0.01
0.01
0.01
0.01
0.01
0.01
0.01
0.01
0.01
0.01
0.01
0.01
0.01
0.01
0.01
0.01
0.01
0.01
0.01
0.01
0.01
0.01
0.01
0.01
0.01
0.01
0.01
0.01
0.01
0.01
0.01
0.01
0.01
0.01
0.01
0.01
0.01
0.01
0.01
0.01
0.01
0.01
0.01
0.01
0.01
0.01
0.01
0.01
0.01
0.01
0.01
0.01
0.01
0.01
0.01
0.01
0.01
0.01
0.01
0.01
0.01
0.01
0.01
0.01
0.01
0.01
0.01
0.01
0.01
0.01
0.01
0.01
0.01
0.01
0.01
0.01
0.01
0.01
0.01
0.01
0.01
0.01
0.01
0.01
0.01
0.01
0.01
0.01
0.01
0.01
0.01
0.01
0.01
0.01
0.01
0.01
0.01
0.01
0.01
0.01
0.01
0.01
0.01
0.01
0.01
0.01
0.01
0.01
0.01
0.01
0.01
0.01
0.01
0.01
0.01
0.01
0.01
0.01
0.01
0.01
0.01
0.01
0.01
0.01
0.01
0.01
0.01
0.01
0.01
0.01
0.01
0.01
0.01
0.01
0.01
0.01
0.01
0.01
0.01
0.01
0.01
0.01
0.01
0.01
0.01
0.01
0.01
0.01
0.01
0.01
0.01
0.01
0.01
0.01
0.01
0.01
0.01
0.01
0.01
0.01
0.01
0.01
0.01
0.01
0.01
0.01
0.01
0.01
0.01
0.01
0.01
0.01
0.01
0.01
0.01
0.01
0.01
0.01
0.01
0.01
0.01
0.01
0.01
0.01
0.01
0.01
0.01
0.01
0.01
0.01
0.01
0.01
0.01
0.01
0.01
0.01
0.01
0.01
0.01
0.01
0.01
0.01
0.01
0.01
0.01
0.01
0.01
0.01
0.01
0.01
0.01
0.01
0.01
0.01
0.01
0.01
0.01
0.01
0.01
0.01
0.01
0.01
0.01
0.01
0.01
0.01
0.01
0.01
0.01
0.01
0.01
0.01
0.01
0.01
0.01
0.01
0.01
0.01
0.01
0.01
0.01
0.01
0.01
0.01
0.01
0.01
0.01
0.01
0.01
0.01
0.01
0.01
0.01
0.01
0.01
0.01
0.01
0.01
0.01
0.01
0.01
0.01
0.01
0.01
0.01
0.01
0.01
0.01
0.01
0.01
0.01
0.01
0.01
0.01
0.01
0.01
0.01
0.01
0.01
0.01
0.01
0.01
0.01
0.01
0.01
0.01
0.01
0.01
0.01
0.01
0.01
0.01
)
;
    }
    patch_4_0
    {
        type            calculated;
        value           nonuniform List<scalar> 
36
(
0.00249683
0.00250319
0.00250108
0.00250606
0.00252807
0.00247007
0.00249751
0.0025023
0.00250017
0.00250017
0.0025023
0.00249751
0.00750317
0.00749681
0.00749892
0.00749394
0.00747193
0.00752993
0.00750249
0.0074977
0.00749983
0.00749983
0.0074977
0.00750249
0.00249683
0.00250319
0.00250108
0.00250606
0.00252807
0.00247007
0.00750317
0.00749681
0.00749892
0.00749394
0.00747193
0.00752993
)
;
    }
    patch_5_0
    {
        type            calculated;
        value           nonuniform List<scalar> 
36
(
0.00247006
0.00252807
0.00250606
0.00250098
0.00250253
0.00249761
0.00752994
0.00747193
0.00749394
0.00749902
0.00749747
0.00750239
0.00249673
0.00250296
0.00250028
0.00250028
0.00250296
0.0024697
0.00252882
0.0025059
0.00250086
0.0025025
0.00249673
0.00249759
0.00750327
0.00749704
0.00749972
0.00749972
0.00749704
0.0075303
0.00747118
0.0074941
0.00749914
0.0074975
0.00750327
0.00750241
)
;
    }
}


// ************************************************************************* //
