/*--------------------------------*- C++ -*----------------------------------*\
| =========                 |                                                 |
| \\      /  F ield         | OpenFOAM                                       |
|  \\    /   O peration     | Version:  v2312                               |
|   \\  /    A nd           | Website:  www.openfoam.com                    |
|    \\/     M anipulation  |                                               |
\*---------------------------------------------------------------------------*/
FoamFile
{
    version     2.0;
    format      ascii;
    class       volVectorField;
    location    "0";
    object      F;
}
// * * * * * * * * * * * * * * * * * * * * * * * * * * * * * * * * * * * * * //

dimensions      [0 1 -2 0 0 0 0]; // TODO I just made it into acceleration, maybe should be fixed later

internalField   nonuniform List<vector>
1136                                   // Number of cells
(
        (-2.198782676975025 -1.3002534397182686 0.01296507230892333)
        (-2.166987980117312 -1.3882937584411632 -0.02052685646139091)
        (-2.1876233818344737 -1.514725071872304 -0.017997004123234454)
        (-2.23845840118114 -1.653265807683804 -0.011346462781404375)
        (-2.262765338825171 -1.7994223161715874 0.003407120873951979)
        (-2.273748415792942 -2.009886261998096 0.0010351645108518564)
        (-2.3961874724023127 -2.3219489263214372 -0.0902421120491825)
        (-2.83632838931582 -2.9292730308085724 -0.16827752273633367)
        (-3.591375790791978 -3.6825215093184824 0.09567301358746239)
        (-3.751056628004733 -3.489564238505212 2.02680585326894)
        (-4.377721648277784 -3.5118207019512004 4.038585321996387)
        (-4.573877728943437 -2.7662762934138763 3.749594816072203)
        (-5.603866924039421 -2.4047733251054204 2.651022060871581)
        (-6.6568074499489365 -1.9377438868895593 2.1684289504101932)
        (-6.621784369724403 -1.1801180675775509 2.728353608174804)
        (-5.729314906210146 -0.4789937338652078 2.178806871288557)
        (-5.277283500281753 0.01156452119030153 -0.07182421031409292)
        (-5.830123124308521 0.5302129258316872 -2.282934800110776)
        (-6.688619740556858 1.2412903205053105 -2.7031392603211195)
        (-6.569738352037708 1.972516804708385 -2.1720010881493614)
        (-5.52913796327327 2.4436254080801856 -2.740097406691425)
        (-4.614181356300804 2.835569384543729 -3.841117841653898)
        (-4.189243863656164 3.3648529990460743 -3.624883830397597)
        (-4.066865269198086 3.855351692912036 -1.7492981484163632)
        (-3.3920833619780426 3.476500354745764 -0.24054038994283325)
        (-2.7962210734546398 2.8801612414345694 0.2023791760995308)
        (-2.3761736912740044 2.2948611424528362 0.06658542793475902)
        (-2.2804897255517846 1.982653218811766 -0.0005395970976221783)
        (-2.260862625126024 1.7968266607759147 0.003021663385273569)
        (-2.2379845329335684 1.652255293622221 0.003414885266828864)
        (-2.215028149484591 1.5170303692919205 0.0044462874398947545)
        (-2.1666106251893464 1.388069480706249 0.011566196245384441)
        (-2.1344777435105624 -1.1617303932042526 -0.0285961936791096)
        (-2.205344417237911 -1.2512738444943343 0.0034332807100576675)
        (-2.2077342104806386 -1.3364300440316668 0.01158047370806179)
        (-2.16881290745578 -1.4587728136835763 -0.0021494881902329)
        (-2.229849395327504 -1.6159361527378695 -0.0035273873287706304)
        (-2.291576520385347 -1.8908998116881488 0.02089889630929786)
        (-2.73490946407414 -2.5515850586467415 -0.1828235451607425)
        (-3.503459890862511 -3.4866841905901973 -0.2890240580602054)
        (-5.303868613646936 -5.228730084209104 0.5647952294699088)
        (-6.256446608099715 -5.717156740574209 3.8206096150055084)
        (-5.211916461565623 -4.1045609178129485 6.727872329760959)
        (-5.205781029511009 -3.272985910323145 6.087425954251261)
        (-7.833949515387947 -3.710244890376815 3.1238799314675143)
        (-11.25433717187852 -3.7816339008600015 2.949470340728749)
        (-11.008766672340306 -2.3461750089247078 5.256630705256647)
        (-7.433572622764409 -0.7465971854007946 4.427120483107063)
        (-6.12218748096323 0.04607548865643886 -0.7565944315667117)
        (-8.499641824080822 0.9838196591069499 -5.19939508727601)
        (-11.535619418493393 2.6440398492240478 -4.6384274362586755)
        (-10.368570419293425 3.665006450492743 -2.5399816398330968)
        (-6.745512950880664 3.320494313785063 -3.8557786629609976)
        (-4.998501369129029 3.223398902978398 -6.551095895560743)
        (-5.68517214673423 4.441713921923164 -6.380771609526914)
        (-6.232995657487493 5.7628072608013365 -3.243445711924167)
        (-5.0176737307967185 4.950704962024101 -0.1759205143512546)
        (-3.476304265719385 3.448932827589543 0.309544863868426)
        (-2.6509248863958352 2.4663670346069577 0.0973210988425138)
        (-2.2954654719343273 1.8692354589861044 -0.015142149589373308)
        (-2.1950016320573047 1.5880225325623045 0.008285853248986237)
        (-2.215710373695944 1.450857352334768 -0.002083244672084431)
        (-2.2050437557511744 1.3344670222236636 -0.0016970887703074708)
        (-2.1441531528184115 1.2164351527353645 0.010220355821652484)
        (-1.9560377573594503 -0.8959487338369236 0.022779460440528705)
        (-2.1178259685086216 -1.0588050132306357 0.010167642594512732)
        (-2.169807693587944 -1.169715476418033 -0.02210112539339095)
        (-2.1822813380699317 -1.2777307723888423 -0.012224854894483272)
        (-2.196403440830461 -1.4680324161304281 0.036581327738756976)
        (-2.297255835546223 -1.9310603266305426 0.17254304313138555)
        (-2.8163231201423318 -2.722365547915369 0.2866567255407643)
        (-4.27015342319741 -4.399277446002851 0.5596805730136385)
        (-6.3692755982273805 -6.521548549482537 2.165119655110128)
        (-7.848713340037776 -7.437838539990011 7.6011192483447125)
        (-5.169233328929126 -4.295917612267998 11.699012514152235)
        (-4.2822490484907405 -2.853385717300699 11.164142912546506)
        (-7.563232010605773 -4.079136077043761 7.132824625723155)
        (-13.64147591358396 -5.388011125905876 6.223892048105496)
        (-14.676810432507644 -3.7558766893792646 8.941478466172839)
        (-8.278284484728854 -1.0053435391523617 8.173889012397474)
        (-4.583128000790583 0.04903077341797601 -0.21797828696864086)
        (-8.39114755661926 1.2003589977202767 -8.553878401173913)
        (-14.726527820052212 4.093916583124935 -9.137974900537527)
        (-13.721724194635478 5.735228538329995 -6.504008994558334)
        (-7.157281375466877 4.0441709019686325 -6.940170700195232)
        (-4.22647298721539 3.018109457617644 -10.498102221827533)
        (-5.533045437867343 4.639379442373546 -11.362812312183998)
        (-7.706131012460301 7.351358111837972 -6.525575734409045)
        (-6.415501793097677 6.572900523300408 -2.2710215918510217)
        (-3.7982211751627015 3.9429129959363856 -0.5586151223949023)
        (-2.770105307302103 2.673455711730443 -0.3819779502445239)
        (-2.275204457768515 1.880118344182201 -0.18355218646060445)
        (-2.157173813276811 1.3794692573834202 -0.00010043223695977224)
        (-2.2399319910073308 1.2883676581728034 -0.0026498922099408052)
        (-2.170123348433809 1.169198029337457 0.010643128943416798)
        (-2.0937297898783456 1.0460065383613468 0.008980977064271645)
        (-1.3938549036965573 -0.5853542223814345 -0.037608991963799715)
        (-1.6085881966833282 -0.6639487148501982 0.025337406529691124)
        (-2.026622008673917 -0.9388125731354 0.014552280385585648)
        (-2.1353722382166107 -1.082830993873138 -0.009821702137910006)
        (-2.182018711743196 -1.4909386135091611 0.16649442648880428)
        (-2.1132863822029955 -2.030213076246505 0.47434050036622066)
        (-2.5143359084623396 -2.837697911405016 1.3292675261155866)
        (-3.4242856167458107 -3.9688104663521635 2.6371087160054745)
        (-5.3081085499613385 -5.994331577332995 7.3201400552426374)
        (-5.38868466959668 -5.677827623554305 12.729756766556697)
        (-2.381024233142991 -2.172390461565134 17.42060108500986)
        (-1.269112516009212 -0.9633129993014007 17.593692001612908)
        (-2.9559992249625706 -1.779544344798018 15.673647666451114)
        (-8.251627451396228 -3.690855882345061 14.018905118938358)
        (-9.093146028904304 -2.649332165739957 14.09000811668891)
        (-2.430827141666682 -0.33708130946106163 9.108431426197523)
        (0.5950199372117624 -0.0075992999892151615 -0.1694815892939845)
        (-2.2310393721405215 0.3664869971056085 -9.595963831923868)
        (-8.936803555931059 2.834699373617167 -14.904234606439674)
        (-8.767524782930556 4.131100121389633 -14.62037249805288)
        (-1.8354202151516303 1.1779346183843864 -18.203250722167965)
        (-0.7718223425524899 0.6145666747115435 -18.845695117313298)
        (-2.988247906406449 2.7955022547689126 -16.469438696605984)
        (-6.0370444482026695 6.3945212851485795 -11.724319527275387)
        (-4.939458648266228 5.607272519556318 -6.399599519021311)
        (-3.2419263015280237 3.769617620395266 -2.5999009833772226)
        (-2.403944412839417 2.6466726166850596 -1.2269433403597665)
        (-2.2506262782405706 2.053502118890495 -0.5083055855517706)
        (-2.2350354380746458 1.4243965161767036 -0.18788233259576548)
        (-2.134636980976154 1.0578962926211184 0.004005560242302924)
        (-1.9634013821844865 0.908802551552913 0.010704940363799337)
        (-1.6014548424506951 0.6592022168246996 -0.01830688416785435)
        (-0.45975221828835333 -0.15966881189918697 0.001468133017649412)
        (-0.7528073441171077 -0.26066944446136153 0.009761285468280098)
        (-1.1491542942453237 -0.41640487192643083 0.035654947566715736)
        (-1.7141980644988828 -0.49712760014260376 0.337226151126484)
        (-2.1480948774636364 -2.048885577627811 -0.21167417586821896)
        (-1.7852406058891606 -2.2728983711287336 0.32788842449056405)
        (-1.850425636107976 -2.560254018367179 1.2479774944553776)
        (-2.205220293914375 -3.0714565487568124 3.3462881167069343)
        (-2.477174972509144 -3.347243185420933 7.937549998273229)
        (-1.8015843145104382 -2.2256837189968173 13.408659417574695)
        (0.5418532529412103 0.576589842857299 19.908290109909316)
        (3.645833389115514 3.293289254770792 25.84313004464652)
        (7.5865221375477745 5.533544784583226 29.36623228792317)
        (9.774975040324996 5.263781062191235 25.42675593845164)
        (10.434178465027049 3.6691335270651626 15.297668852938326)
        (10.627999483016684 1.7760191867135826 5.590186936077169)
        (10.425624494200692 -0.17682561346189424 -0.5682504507339381)
        (10.438608337695499 -2.098764707680056 -7.292263080319878)
        (10.179938450371054 -3.924668520589554 -17.443796515255755)
        (9.311314419649298 -5.357279473520101 -26.543226147347585)
        (7.544435400547171 -5.668635775580622 -29.876241907407515)
        (4.336890445968644 -3.8695445992217037 -26.970524211461644)
        (0.5767034468583729 -0.633971426766631 -19.914480682244243)
        (-1.7920115640890772 2.2872681790681657 -13.72213469841197)
        (-2.609750361583088 3.529301252839718 -7.240688384821555)
        (-2.111072101644333 3.08222762290373 -3.0964620531961415)
        (-1.84185129163381 2.646239282598693 -1.3470583454447724)
        (-1.764527008135714 2.2690214670824163 -0.2779812912604387)
        (-2.4451652293880493 1.7934763695259437 -0.15377654466449509)
        (-1.579136882958718 0.5382239212462612 -0.13961039281658233)
        (-1.143627933141793 0.412219490756045 -0.0310652081588836)
        (-0.7549470484039106 0.26093855281865186 -0.015290056268637274)
        (-0.17076567839917306 -0.04673792838667482 0.0016905480204874805)
        (-0.22538935580925978 -0.06615484269769413 -0.001120967038584619)
        (-0.2884968437547272 -0.07967145617235236 0.019211819787068585)
        (-0.49305609807988166 0.20637766104012345 0.6119815191775497)
        (-0.6176960364560462 -2.43249568479884 -2.4117650571454474)
        (-0.9420977958656783 -2.223202866248072 -1.1207772322546323)
        (-1.2784220765445138 -2.482825770887244 0.20625087517903617)
        (-1.490292593818923 -2.672341616471611 1.3748299735120304)
        (-1.847339897767882 -3.0993408693032904 4.187793567452916)
        (-1.008821876078728 -1.5289512485302805 9.491216439008483)
        (3.061107608375565 4.071066825558044 20.67010608193776)
        (9.83307811004229 10.84757922421808 32.62583275746525)
        (18.590971717629948 16.363915555758055 39.339815328139814)
        (31.038340185527 20.45641223752244 35.83107788739792)
        (31.05865529918365 13.822570466414392 14.760944505841904)
        (23.856984653374536 5.070274325284076 0.5513332748342457)
        (20.10135955417721 -0.21399813150549565 -0.09448171800137928)
        (24.043807037776816 -5.62055254371346 -1.1604116454417621)
        (31.457993861960723 -14.349178883000178 -15.723249703292954)
        (27.023040006997746 -19.22271924112667 -35.143777873108824)
        (18.56355828293164 -16.97144068560032 -40.04243240741218)
        (8.38936349293213 -9.542741632777071 -30.875337998021543)
        (2.5687265297478614 -3.4378830471228996 -20.033969612950838)
        (-1.0999884341616881 1.6760630957418217 -9.254422389722793)
        (-1.7757326715479722 2.9668058939397666 -3.9202095293574866)
        (-1.5976353497979374 2.8870051530500316 -1.0533566997626034)
        (-1.1550056203510108 2.387707826654898 0.17122506521701664)
        (-0.9366905409202735 2.2538972561712023 1.101255041216036)
        (-0.18757594099397504 1.4305917919871132 1.6476413680214348)
        (-0.5047532664117739 -0.1060478915704898 -0.4616977944101618)
        (-0.28892850202870635 0.07960024754212966 -0.018289212775826003)
        (-0.23556487816023652 0.06946570371619872 -0.003847606762139795)
        (-0.05110282753562181 -0.012014542658440944 -0.0017209788085907228)
        (-0.06646137759325654 -0.013647883867177388 0.004453151732093619)
        (-0.08462939936861333 -0.015896801543786886 0.011221061973894721)
        (-0.07896874026040772 0.07762966699971346 0.22599619381189767)
        (-0.12757738969533533 -1.5714440988840288 -2.7644261445996574)
        (-0.4142164123658042 -1.7685885573009743 -2.2709314858744776)
        (-0.7831313139685894 -2.264942498274813 -1.6389251329850332)
        (-1.157635394778796 -2.833967402416325 -1.3278610187966582)
        (-2.48056108928073 -5.488817361585926 -0.19801206101095975)
        (-2.4274543366844448 -4.779214541506397 4.0190300352672095)
        (2.748565704011864 4.810787061301257 14.579364588865236)
        (11.451668998030984 16.694385162409997 26.265865413675247)
        (31.80314910010607 35.762536911675475 41.63771901344422)
        (51.50868569479065 43.871043861037464 33.79129032456266)
        (50.71546529743081 28.574349002876197 6.322007325916577)
        (33.05930451829464 8.832324277404744 -7.154086593115757)
        (24.6106777122894 -0.3114694946204176 -0.07905860072684945)
        (33.040941090417114 -9.934618990566422 6.674109026013049)
        (50.40950655444754 -29.357809615275535 -6.600154631922335)
        (49.27330303786559 -42.80596918103437 -35.0633295314174)
        (28.74489970457936 -33.25793768563306 -41.67105606281188)
        (11.687837903714836 -17.276576591171796 -26.708355596748866)
        (1.309069926236477 -2.247772777144947 -12.603233540193214)
        (-2.4210978261547793 4.801702355350329 -3.9304319485323505)
        (-2.174718709693593 4.77392174529321 0.36231403313496746)
        (-1.282582373122971 3.127325219824994 1.2479313195975523)
        (-0.6742526755332199 2.116056373667222 1.8122872846540186)
        (-0.4089519522340034 1.7694362561726709 2.2681650326658356)
        (-0.04473130659227342 0.9900401729120185 1.8776579568626848)
        (-0.09872923461451319 -0.06889731946434517 -0.2174688466762708)
        (-0.0809886441248493 0.015131022924811121 -0.010793985712914494)
        (-0.06598736964533843 0.013673751031047308 -0.0034045125815834756)
        (-0.4488157994945601 -2.0262835565975132 -2.7743694763044426)
        (-0.6958733371956158 -2.5018146940329435 -2.9566874107897814)
        (-1.7757777625447426 -5.606842980265672 -1.9141396568947584)
        (-2.258170486449012 -6.184264182823687 0.024440445363119845)
        (2.056966965516815 5.09066526724654 3.8456471545681055)
        (11.207014997285906 23.777924422942075 8.33686643375593)
        (28.549770389558454 44.61603362154461 14.978205704109936)
        (49.6393474182783 57.08574707135296 5.039285213921772)
        (48.26559880214479 37.620750765096666 -10.247112771834352)
        (28.833726300174778 10.634922053331836 -13.949380907970063)
        (21.205807817818062 -0.5290135180965979 1.6455008983791757)
        (32.2010976768997 -13.293582034501302 15.16290820179972)
        (50.091392660481034 -40.595271041621544 10.973273417511859)
        (47.404792534060505 -57.77196887097305 -6.812054222121882)
        (28.809266063940868 -44.869544496769564 -14.78306505710388)
        (9.102622330814151 -19.27545074539782 -6.918758418956788)
        (0.581015122736454 -1.430584910802219 -3.3324537802726155)
        (-2.2383756296653368 6.221168276894963 -0.0008934324787146508)
        (-1.5778665804374068 4.9493317274717885 2.1900774531126386)
        (-0.8075847634613877 2.990854968135185 2.731565712930066)
        (-0.11862042368586022 -0.9980088132594117 -3.582781873542496)
        (-0.2475220804559095 -1.507238374623958 -4.210368558087775)
        (-0.5641678537229176 -2.9950660802822346 -4.322316730806427)
        (-0.6031533143812005 -2.7582704395807878 -5.343771537865048)
        (1.3086111285949147 5.253385009346992 -9.479779832430767)
        (5.662996017261236 17.730672355742467 -16.297206979239256)
        (12.748419307328174 32.88711480775485 -22.46929224697491)
        (22.200503223866274 42.153083877916984 -29.15226403966467)
        (21.855475028530176 27.75554601845221 -26.11801567494763)
        (12.916602181719224 7.198587335372216 -13.023023542336087)
        (9.736241431652289 -0.938494647612398 2.085327856795992)
        (15.504005150303366 -10.78529464563502 17.20246826734229)
        (21.070802856703082 -31.589062794994458 26.158266900995553)
        (21.75210872763877 -43.88610951395289 28.63310367309179)
        (12.133141721334413 -33.031536413986494 23.27753602044298)
        (4.647642252216343 -15.067274655418199 14.90850273572924)
        (0.6127548649052784 -2.489071405188538 8.68970639888561)
        (-0.5850733172466938 2.711658375628714 5.392150220513734)
        (-0.5308591051779441 2.770003314667308 4.155835914601965)
        (-0.2393713115308681 1.6004324165160575 3.8248579717352302)
        (-0.013069393772940668 -0.32559177116430293 -4.065703666031027)
        (-0.02773846806296143 -0.46496641425192464 -5.197425418422096)
        (-0.04520090841197749 -0.6921941232811462 -7.2196367591799175)
        (-0.020996765476501533 -0.29631022144157004 -11.130496989279814)
        (0.22885871543782088 2.7677711819195565 -19.613496855524986)
        (0.7272233290294772 6.470664759169475 -32.441212258990866)
        (1.5228188426510019 11.105384643416858 -41.75255198153553)
        (2.3532675323765777 14.160224164444397 -43.71172614211714)
        (1.7128024654021676 7.4925342034653815 -29.19649980330952)
        (1.5127271695237896 2.7008227295540603 -12.907482413312009)
        (0.9692182848311708 -0.023025333349147182 0.15597586956658205)
        (1.4154372638765498 -2.8998902212800886 14.61506665042727)
        (1.5049599153792013 -7.313104754189664 30.939023081480002)
        (2.3729497474592574 -13.453968226094286 44.594098337979524)
        (1.4746460666035812 -10.716363169397216 41.926351359317096)
        (0.5455217664744323 -5.598224677355041 30.46786715840028)
        (0.1138795483417665 -1.3873395650225375 17.964749640149357)
        (-0.019867581509773635 0.26605655547655815 11.181292980919137)
        (-0.05034915033054488 0.7184794871208746 6.495705158296611)
        (-0.024097708395889206 0.4612568906839536 4.787402002269562)
        (-0.014502813697278252 0.3555256330043049 -3.9806852218122786)
        (-0.04140799641578441 0.6878511659903062 -5.068084499758546)
        (-0.044194508597949156 0.6703346147397118 -7.236439276275695)
        (-0.012462721436014124 0.1716088812981904 -11.110914274410426)
        (0.09848438944703053 -1.1823343659009786 -19.373333070369455)
        (0.7415105613614693 -6.56301637428807 -32.45345743488815)
        (1.3251803885969695 -11.491214635785107 -42.110689785149376)
        (2.404629566257669 -14.412592381944124 -43.56508476455651)
        (2.491763331200856 -8.46643663354314 -29.167347907607926)
        (1.401445614620391 -2.464920257843619 -12.093811423796422)
        (0.7584803907082485 0.11404254913858022 0.8155512565659171)
        (1.482706803181144 3.160413044907316 14.274955374811645)
        (1.6100538076328252 7.306682665714804 31.149791312704107)
        (1.970818275171226 13.3509154444358 44.67305367175308)
        (1.223503123950828 10.654403211888367 41.97773567334218)
        (0.5582973901294064 5.7308140666528296 30.540601959497728)
        (0.11327658197524854 1.380341888658052 17.962551520057126)
        (-0.01897471093959291 -0.2577781432825671 11.155249201217867)
        (-0.05739836137399312 -0.8188298579046793 6.495753383988072)
        (-0.024876270783963872 -0.47490939132216403 4.757760806082755)
        (-0.12355634606776182 1.0332759293922193 -3.5644361792311563)
        (-0.35209336338341735 2.1362040457937734 -3.623180111544913)
        (-0.5274489003735623 2.7908104176866617 -4.503076359667893)
        (-0.5522286710212657 2.517287946779219 -5.288453491723341)
        (0.7290702742092663 -2.781195247140456 -9.083985003136272)
        (5.723332027690695 -17.88174075082414 -15.791068810109753)
        (13.267649021727202 -34.035960612631705 -21.803798437428185)
        (23.01301451893393 -46.53076983484524 -25.86381097142177)
        (20.533053242510316 -25.845283141836315 -26.186340586010616)
        (11.705029418993453 -6.74952135116752 -12.676470936352594)
        (9.578979567484982 0.9431861351271471 2.163748889075814)
        (15.902349807707035 11.059026122368332 17.043805179896925)
        (20.885819258584615 28.112647765807907 27.43275912511257)
        (21.26214397377089 43.27791363753354 28.999069516737524)
        (12.731232014227965 32.72265744982244 22.819044223038304)
        (4.682058944953946 15.180171111555218 14.981030040246981)
        (0.6291421086085134 2.4868466456678493 8.51239884284534)
        (-0.584188910443809 -2.7141426049818698 5.42597341902507)
        (-0.5593656225182451 -2.918766449674348 3.998939442011191)
        (-0.2292660769946071 -1.5328383472923064 3.8659533064070573)
        (-0.36192302398899784 1.6278239065055404 -2.8251956822509126)
        (-1.0434847570956913 3.7414722891375396 -2.387157514299013)
        (-1.6493406388784342 5.242498699489298 -1.9600346106027842)
        (-2.0736062178845547 5.7839475162890395 -0.038095048375660356)
        (0.8900802585060834 -2.198952391289085 3.023769836931964)
        (12.191127383748086 -23.077629364148613 11.285216239756842)
        (29.014890156126565 -45.017103951421184 17.30652165162415)
        (49.235536947260954 -54.671036739594825 7.992204914213867)
        (45.09008331524205 -34.76416597288987 -12.580687049188713)
        (30.289240225671286 -11.306197146424584 -12.722770820212293)
        (22.16184012192522 0.5562646806490218 1.5452706239144454)
        (34.04773071141181 13.505371640914696 15.120205684778378)
        (47.6553346286131 40.018251125864545 8.882587166002114)
        (46.911101657598934 57.5696454397443 -5.0478890736576005)
        (29.172579766977563 45.386100118747684 -14.044663880340122)
        (9.255096233162789 19.50581885459338 -6.938564133293032)
        (0.5933230533366163 1.4609309014362202 -3.3635315817440787)
        (-2.2769840966428996 -6.346213813024011 0.011547773573910458)
        (-1.6571552533703424 -5.198009849210399 1.9804542003144274)
        (-0.8466704422231995 -3.1352599093105713 2.706047817862002)
        (-0.05013830866766928 0.01177891633100954 -0.001603320144021303)
        (-0.06672524867305514 0.013845878714742518 0.0033260581229570007)
        (-0.0845740122432742 0.01609203130272041 0.012216525549599452)
        (-0.08100273611308531 -0.0735810607520534 0.22195007766980984)
        (-0.1440847957998886 1.58517682306424 -2.7948907901163142)
        (-0.4188276776162637 1.781567859380044 -2.317001159361823)
        (-0.8470054603653172 2.4422930606535345 -1.6291064852529655)
        (-1.571326865885584 3.837912453206235 -1.1355341762246776)
        (-2.5510574097571013 5.6268709612674614 -0.3317408378858172)
        (-2.219787813009773 4.34956449949641 4.127322516900869)
        (2.2668327847093552 -3.7179351103957363 13.81993794705384)
        (13.46341991966126 -19.893290629729115 27.41820534346004)
        (29.17932337929632 -32.7366986823636 41.09597249730605)
        (52.227711298573894 -43.46569904412174 32.27551200369579)
        (50.62771099094955 -29.00900413563375 6.5095942669447915)
        (32.91735027948829 -9.088667229605793 -6.948269150888408)
        (24.51216026993521 0.2608389795899286 0.083023933060281)
        (32.98232328934554 9.912771059189039 6.955706158198769)
        (50.943575887542835 29.807993405295992 -6.0869479141004055)
        (48.756599399520354 42.764368285686054 -35.95648775946985)
        (30.499352466196378 35.02457790973652 -42.22329723871182)
        (11.368044163209307 16.686178552640282 -26.579012671833983)
        (1.3254100789781358 2.312615226114809 -12.366127838855167)
        (-2.4285704324790034 -4.823876423249277 -3.947442458207755)
        (-2.2869286387844925 -5.020714646274546 0.3011060260971049)
        (-1.3869680926380097 -3.381773985894925 1.2304114176832572)
        (-0.6782466571247794 -2.127184195544975 1.82110899198661)
        (-0.41154159291081643 -1.7786442606117427 2.2613349830614866)
        (-0.04454831360490226 -0.9786704791883636 1.8787451880055301)
        (-0.08718166665469354 0.06025595800151433 -0.19769254268459335)
        (-0.08148347909947624 -0.015437099733768448 -0.010487390195760754)
        (-0.06614795570531773 -0.01379188700648153 -0.0030698624715137144)
        (-0.16741457770875046 0.04613763134327627 0.001770506970233351)
        (-0.22367669138575322 0.06595807175470804 -0.0011946970348718055)
        (-0.2990118318750991 0.08322400330271458 0.01764152774245124)
        (-0.47983201406366044 -0.18597338733944332 0.5888293930943909)
        (-0.6410487738536232 2.4872472379621375 -2.3945761434806445)
        (-0.9628499466205116 2.261706160615823 -1.1404342387349398)
        (-1.3317277101254419 2.579791841706493 0.2839720649312325)
        (-1.7306613518483616 3.0989113380428854 1.7414157284804053)
        (-1.8289714698196788 3.0702438823766163 4.209754165992284)
        (-0.9700690101672031 1.4701353464089697 9.449883545475728)
        (3.54318781417333 -4.640543710518184 21.557131795779057)
        (11.195392237631514 -12.140692800719025 33.54762791742487)
        (18.63917113045804 -16.818013198915537 39.75281943821569)
        (31.367201263226377 -21.06044841550709 37.03984210984249)
        (31.42169542445512 -13.72186261803304 14.71504710925835)
        (23.872656007256456 -5.066790336693889 0.7324117200548943)
        (20.1959771271001 0.2198765070862428 0.0011852654799096585)
        (24.127165755001613 5.646034476738728 -1.0565975124250908)
        (28.331538250233997 12.985774689490734 -17.614486069896124)
        (26.608023511680777 18.20723038013203 -36.23731663227615)
        (16.126886265030464 14.306337622157224 -37.96679757821008)
        (7.695325102939676 8.668983298768513 -29.612007239028095)
        (2.0203197031248803 2.7240120553373215 -18.533701711167144)
        (-0.9954219148765592 -1.5270288456111532 -9.580241377429843)
        (-1.8787731571781818 -3.1382135284924386 -3.8748517668719455)
        (-1.6264419762927624 -2.9006183973853044 -1.480014503508282)
        (-1.1606276493094245 -2.3997369770274117 0.20901880227165617)
        (-0.9420764383141063 -2.2629745742956593 1.1027854255968716)
        (-0.17816171790756397 -1.4497377351185257 1.6946594006810494)
        (-0.5098802477758131 0.12828127270005102 -0.49857485422412695)
        (-0.2900566771471397 -0.07965176918534403 -0.01860883507566735)
        (-0.2377894304693386 -0.06960864637874688 -0.004467366043357975)
        (-0.5053808533843808 0.16611310279236932 0.010161668152218892)
        (-0.738941899277576 0.25628034989588433 0.014158841214137874)
        (-1.1563139503807274 0.41929370133445953 0.02710030843934227)
        (-1.6438202590785502 0.43326442996988845 0.31730985134696404)
        (-2.3994006300831785 2.0776945847594552 -0.037151996426993655)
        (-1.785350636028458 2.257889887756121 0.27942819050238354)
        (-1.9951037770332747 2.6926672564530483 1.6826646663666347)
        (-2.3808336661998157 3.294266941012209 4.114538525177751)
        (-2.555791428568281 3.413436977053626 7.729684927763911)
        (-1.6200361682496303 2.005814058169313 13.330863164240688)
        (1.123468459460121 -1.223451059493329 20.869591984874052)
        (3.6194243497645164 -3.215308470750445 25.09148324620358)
        (8.953840927821458 -6.512252411513924 31.005913808536963)
        (10.514300884727726 -5.689136373316733 26.617660554007234)
        (13.107733274112265 -4.60360905524602 15.731890206031235)
        (12.418151459748028 -2.071012379589383 4.880330699635028)
        (11.471896254579601 0.19784733152719092 -1.6062630872602561)
        (11.041485659349078 2.222802912519043 -8.191404969969657)