/*--------------------------------*- C++ -*----------------------------------*\
| =========                 |                                                 |
| \\      /  F ield         | OpenFOAM: The Open Source CFD Toolbox           |
|  \\    /   O peration     | Version:  2406                                  |
|   \\  /    A nd           | Website:  www.openfoam.com                      |
|    \\/     M anipulation  |                                                 |
\*---------------------------------------------------------------------------*/
FoamFile
{
    version     2.0;
    format      ascii;
    arch        "LSB;label=32;scalar=64";
    class       extendedFeatureEdgeMesh;
    location    "constant/extendedFeatureEdgeMesh";
    object      Compound_Geometry.extendedFeatureEdgeMesh;
}
// * * * * * * * * * * * * * * * * * * * * * * * * * * * * * * * * * * * * * //

// points

176
(
(0.0735118985176086 -0.186000004410744 0.0399999991059303)
(-0.0735118985176086 -0.186000004410744 0.0399999991059303)
(-0.0735118985176086 -0.186000004410744 0)
(0.0735118985176086 -0.186000004410744 0)
(-0.0599999986588955 0.0199999995529652 0.00999999977648258)
(-0.100000001490116 0.0199999995529652 0.00999999977648258)
(-0.0599999986588955 -0.0199999995529652 0.00999999977648258)
(-0.100000001490116 -0.0199999995529652 0.00999999977648258)
(0.100000001490116 0.0199999995529652 0.00999999977648258)
(0.0599999986588955 0.0199999995529652 0.00999999977648258)
(0.100000001490116 -0.0199999995529652 0.00999999977648258)
(0.0599999986588955 -0.0199999995529652 0.00999999977648258)
(-0.0599999986588955 0.0199999995529652 0.0399999991059303)
(-0.100000001490116 0.0199999995529652 0.0399999991059303)
(-0.0599999986588955 -0.0199999995529652 0.0399999991059303)
(-0.100000001490116 -0.0199999995529652 0.0399999991059303)
(0.0624499805271626 0.189999997615814 0.0399999991059303)
(-0.0624499805271626 0.189999997615814 0.0399999991059303)
(-0.0624499805271626 0.189999997615814 0)
(0.0624499805271626 0.189999997615814 0)
(0.0599999986588955 -0.0199999995529652 0.0399999991059303)
(0.100000001490116 -0.0199999995529652 0.0399999991059303)
(0.0599999986588955 0.0199999995529652 0.0399999991059303)
(0.100000001490116 0.0199999995529652 0.0399999991059303)
(-0.199999615550041 -0.000393716880353168 0.0399999991059303)
(-0.199581161141396 -0.0129367234185338 0.0399999991059303)
(-0.19837686419487 -0.0254287905991077 0.0399999991059303)
(-0.196391418576241 -0.0378207303583622 0.0399999991059303)
(-0.193632692098618 -0.0500637516379356 0.0399999991059303)
(-0.19011153280735 -0.0621096417307854 0.0399999991059303)
(-0.185841783881187 -0.0739109739661217 0.0399999991059303)
(-0.180840268731117 -0.0854212716221809 0.0399999991059303)
(-0.175126701593399 -0.0965952277183533 0.0399999991059303)
(-0.168723553419113 -0.107388831675053 0.0399999991059303)
(-0.161656051874161 -0.117759585380554 0.0399999991059303)
(-0.153952032327652 -0.127666652202606 0.0399999991059303)
(-0.145641803741455 -0.137071028351784 0.0399999991059303)
(-0.136758103966713 -0.14593568444252 0.0399999991059303)
(-0.127335906028748 -0.154225692152977 0.0399999991059303)
(-0.117412321269512 -0.161908447742462 0.0399999991059303)
(-0.107026427984238 -0.16895367205143 0.0399999991059303)
(-0.0962191075086594 -0.175333634018898 0.0399999991059303)
(-0.0850329101085663 -0.181023210287094 0.0399999991059303)
(-0.18117518723011 0.0847086161375046 0.0399999991059303)
(-0.186131343245506 0.0731787085533142 0.0399999991059303)
(-0.190354585647583 0.0613606609404087 0.0399999991059303)
(-0.19382831454277 0.0493010021746159 0.0399999991059303)
(-0.196538805961609 0.0370472148060799 0.0399999991059303)
(-0.198475435376167 0.0246475525200367 0.0399999991059303)
(-0.199630558490753 0.0121508408337831 0.0399999991059303)
(-0.175505667924881 0.0959049761295319 0.0399999991059303)
(-0.169145047664642 0.106723710894585 0.0399999991059303)
(-0.162118434906006 0.117122210562229 0.0399999991059303)
(-0.154453471302986 0.127059534192085 0.0399999991059303)
(-0.146180346608162 0.136496558785439 0.0399999991059303)
(-0.137331619858742 0.14539609849453 0.0399999991059303)
(-0.127942129969597 0.153723165392876 0.0399999991059303)
(0.0850516706705093 -0.181014403700829 0.0399999991059303)
(0.0962554290890694 -0.175313696265221 0.0399999991059303)
(0.107078939676285 -0.168920397758484 0.0399999991059303)
(0.117479413747787 -0.161859765648842 0.0399999991059303)
(0.127415791153908 -0.154159709811211 0.0399999991059303)
(-0.118048876523972 0.161444917321205 0.0399999991059303)
(-0.107690796256065 0.168530985713005 0.0399999991059303)
(-0.0969086736440659 0.174953445792198 0.0399999991059303)
(0.1368488073349 -0.145850628614426 0.0399999991059303)
(0.145741179585457 -0.136965364217758 0.0399999991059303)
(0.154057785868645 -0.12753900885582 0.0399999991059303)
(0.161765798926353 -0.117608785629272 0.0399999991059303)
(0.16883473098278 -0.107213959097862 0.0399999991059303)
(0.17523667216301 -0.0963955670595169 0.0399999991059303)
(-0.0857449695467949 0.1806870251894 0.0399999991059303)
(0.180946335196495 -0.0851963683962822 0.0399999991059303)
(-0.0742436423897743 0.18570913374424 0.0399999991059303)
(0.185941159725189 -0.0736605897545815 0.0399999991059303)
(0.190201416611671 -0.0618338137865067 0.0399999991059303)
(0.193710267543793 -0.0497627556324005 0.0399999991059303)
(0.196453854441643 -0.0374951101839542 0.0399999991059303)
(0.198421344161034 -0.0250793378800154 0.0399999991059303)
(0.199604943394661 -0.0125644877552986 0.0399999991059303)
(0.200000002980232 -4.89999990395467e-17 0.0399999991059303)
(0.199607476592064 0.0125241596251726 0.0399999991059303)
(0.198431462049484 0.0249991584569216 0.0399999991059303)
(0.196476548910141 0.0373760312795639 0.0399999991059303)
(0.19375042617321 0.0496061928570271 0.0399999991059303)
(0.190263777971268 0.0616416409611702 0.0399999991059303)
(0.186030313372612 0.0734351351857185 0.0399999991059303)
(0.0742253661155701 0.185716435313225 0.0399999991059303)
(0.181066647171974 0.0849403738975525 0.0399999991059303)
(0.0857094004750252 0.180703908205032 0.0399999991059303)
(0.175392255187035 0.0961122065782547 0.0399999991059303)
(0.0968570113182068 0.17498205602169 0.0399999991059303)
(0.169029399752617 0.106906786561012 0.0399999991059303)
(0.107624433934689 0.16857336461544 0.0399999991059303)
(0.162003085017204 0.117281720042229 0.0399999991059303)
(0.117969408631325 0.161503002047539 0.0399999991059303)
(0.154340848326683 0.127196297049522 0.0399999991059303)
(0.127851322293282 0.153798684477806 0.0399999991059303)
(0.146072819828987 0.136611610651016 0.0399999991059303)
(0.137231394648552 0.145490691065788 0.0399999991059303)
(-0.0742436423897743 0.18570913374424 0)
(-0.0857449695467949 0.1806870251894 0)
(-0.0969086736440659 0.174953445792198 0)
(-0.107690796256065 0.168530985713005 0)
(-0.118048876523972 0.161444917321205 0)
(-0.127942129969597 0.153723165392876 0)
(-0.137331619858742 0.14539609849453 0)
(-0.146180346608162 0.136496558785439 0)
(-0.154453471302986 0.127059534192085 0)
(-0.162118434906006 0.117122210562229 0)
(-0.169145047664642 0.106723710894585 0)
(-0.175505667924881 0.0959049761295319 0)
(-0.18117518723011 0.0847086161375046 0)
(-0.186131343245506 0.0731787085533142 0)
(-0.190354585647583 0.0613606609404087 0)
(-0.19382831454277 0.0493010021746159 0)
(-0.196538805961609 0.0370472148060799 0)
(-0.198475435376167 0.0246475525200367 0)
(-0.199630558490753 0.0121508408337831 0)
(-0.199999615550041 -0.000393716880353168 0)
(-0.199581161141396 -0.0129367234185338 0)
(-0.19837686419487 -0.0254287905991077 0)
(-0.196391418576241 -0.0378207303583622 0)
(-0.193632692098618 -0.0500637516379356 0)
(-0.19011153280735 -0.0621096417307854 0)
(-0.185841783881187 -0.0739109739661217 0)
(-0.180840268731117 -0.0854212716221809 0)
(-0.175126701593399 -0.0965952277183533 0)
(-0.168723553419113 -0.107388831675053 0)
(-0.161656051874161 -0.117759585380554 0)
(-0.153952032327652 -0.127666652202606 0)
(-0.145641803741455 -0.137071028351784 0)
(-0.136758103966713 -0.14593568444252 0)
(-0.127335906028748 -0.154225692152977 0)
(-0.117412321269512 -0.161908447742462 0)
(-0.107026427984238 -0.16895367205143 0)
(-0.0962191075086594 -0.175333634018898 0)
(-0.0850329101085663 -0.181023210287094 0)
(0.0850516706705093 -0.181014403700829 0)
(0.0962554290890694 -0.175313696265221 0)
(0.107078939676285 -0.168920397758484 0)
(0.117479413747787 -0.161859765648842 0)
(0.127415791153908 -0.154159709811211 0)
(0.1368488073349 -0.145850628614426 0)
(0.145741179585457 -0.136965364217758 0)
(0.154057785868645 -0.12753900885582 0)
(0.161765798926353 -0.117608785629272 0)
(0.17523667216301 -0.0963955670595169 0)
(0.16883473098278 -0.107213959097862 0)
(0.180946335196495 -0.0851963683962822 0)
(0.185941159725189 -0.0736605897545815 0)
(0.190201416611671 -0.0618338137865067 0)
(0.193710267543793 -0.0497627556324005 0)
(0.196453854441643 -0.0374951101839542 0)
(0.198421344161034 -0.0250793378800154 0)
(0.199604943394661 -0.0125644877552986 0)
(0.200000002980232 -4.89999990395467e-17 0)
(0.199607476592064 0.0125241596251726 0)
(0.198431462049484 0.0249991584569216 0)
(0.196476548910141 0.0373760312795639 0)
(0.19375042617321 0.0496061928570271 0)
(0.190263777971268 0.0616416409611702 0)
(0.0742253661155701 0.185716435313225 0)
(0.186030313372612 0.0734351351857185 0)
(0.181066647171974 0.0849403738975525 0)
(0.175392255187035 0.0961122065782547 0)
(0.0857094004750252 0.180703908205032 0)
(0.0968570113182068 0.17498205602169 0)
(0.107624433934689 0.16857336461544 0)
(0.117969408631325 0.161503002047539 0)
(0.162003085017204 0.117281720042229 0)
(0.169029399752617 0.106906786561012 0)
(0.154340848326683 0.127196297049522 0)
(0.146072819828987 0.136611610651016 0)
(0.137231394648552 0.145490691065788 0)
(0.127851322293282 0.153798684477806 0)
)

// edges

188
(
(0 1)
(1 2)
(2 3)
(3 0)
(12 13)
(14 12)
(13 15)
(15 14)
(21 20)
(20 22)
(23 21)
(22 23)
(24 25)
(25 26)
(26 27)
(27 28)
(28 29)
(29 30)
(30 31)
(31 32)
(32 33)
(33 34)
(34 35)
(35 36)
(36 37)
(37 38)
(38 39)
(39 40)
(40 41)
(41 42)
(42 1)
(43 44)
(44 45)
(45 46)
(46 47)
(47 48)
(48 49)
(49 24)
(50 43)
(51 50)
(52 51)
(53 52)
(54 53)
(55 54)
(56 55)
(0 57)
(57 58)
(58 59)
(59 60)
(60 61)
(62 56)
(63 62)
(64 63)
(61 65)
(65 66)
(66 67)
(67 68)
(68 69)
(69 70)
(71 64)
(70 72)
(73 71)
(72 74)
(17 73)
(74 75)
(75 76)
(76 77)
(77 78)
(78 79)
(79 80)
(80 81)
(81 82)
(82 83)
(83 84)
(84 85)
(85 86)
(87 16)
(86 88)
(89 87)
(88 90)
(91 89)
(90 92)
(93 91)
(92 94)
(95 93)
(94 96)
(97 95)
(96 98)
(99 97)
(98 99)
(18 100)
(100 101)
(101 102)
(102 103)
(103 104)
(104 105)
(105 106)
(106 107)
(107 108)
(108 109)
(109 110)
(110 111)
(111 112)
(112 113)
(113 114)
(114 115)
(115 116)
(116 117)
(117 118)
(118 119)
(119 120)
(120 121)
(121 122)
(122 123)
(123 124)
(124 125)
(125 126)
(126 127)
(127 128)
(128 129)
(129 130)
(130 131)
(131 132)
(132 133)
(133 134)
(134 135)
(135 136)
(136 137)
(137 2)
(138 3)
(139 138)
(140 139)
(141 140)
(142 141)
(143 142)
(144 143)
(145 144)
(146 145)
(147 148)
(149 147)
(150 149)
(151 150)
(152 151)
(153 152)
(154 153)
(155 154)
(148 146)
(156 155)
(157 156)
(158 157)
(159 158)
(160 159)
(161 160)
(19 162)
(163 161)
(164 163)
(165 164)
(166 167)
(162 166)
(168 169)
(167 168)
(170 171)
(172 170)
(173 172)
(171 165)
(174 173)
(175 174)
(169 175)
(16 17)
(17 18)
(18 19)
(19 16)
(4 12)
(5 4)
(13 5)
(4 6)
(6 14)
(5 7)
(7 6)
(15 7)
(8 23)
(9 8)
(22 9)
(8 10)
(10 21)
(9 11)
(11 10)
(11 20)
)

// concaveStart mixedStart nonFeatureStart
4 12 24
// internalStart flatStart openStart multipleStart
168 188 188 188
// normals

320
(
(-0 -1 0)
(0 0 1)
(-0.396557693680436 -0.91800980146339 0)
(0 -1 -0)
(0 0 -1)
(0.396604787814053 -0.917989456520591 0)
(0 -1 0)
(0 0 1)
(-1 0 0)
(0 0 1)
(1 -0 0)
(0 0 1)
(0 1 0)
(0 0 1)
(-0 -1 0)
(0 0 1)
(-0.341902075825152 0.939735585442231 0)
(0 -1 -0)
(-0 -0 -1)
(0.34185611364133 0.939752306496795 0)
(0 0 1)
(0 1 0)
(0 0 1)
(1 -0 0)
(0 0 1)
(-1 0 0)
(0 0 1)
(0 -1 0)
(0 0 1)
(-0.999443966878968 -0.0333430212973041 0)
(0 0 1)
(-0.995385186538176 -0.0959600459585136 0)
(0 0 1)
(-0.987406607644155 -0.158203006231432 0)
(0 0 1)
(-0.975540653407 -0.219819092779138 0)
(0 0 1)
(-0.959833309326874 -0.280570879291885 0)
(0 0 1)
(-0.940346098301528 -0.340219363659821 0)
(0 0 1)
(-0.917156339084894 -0.398527602151212 0)
(0 0 1)
(-0.890356072871134 -0.455264827876579 -0)
(0 0 1)
(-0.860048962462858 -0.510211507285519 0)
(0 0 1)
(-0.826355898691242 -0.563148229774533 0)
(0 0 1)
(-0.789409243103897 -0.613867287695095 0)
(0 0 1)
(-0.74935341887089 -0.662170260300557 -0)
(0 0 1)
(-0.706347661029499 -0.707865087257562 0)
(0 0 1)
(-0.660559344095136 -0.750773836070893 0)
(0 0 1)
(-0.612172211133607 -0.79072446776092 0)
(0 0 1)
(-0.561373408511171 -0.827562623743092 -0)
(0 0 1)
(-0.508364164137222 -0.861142193032639 0)
(0 0 1)
(-0.453352992368783 -0.891331063247697 -0)
(0 0 1)
(0 0 1)
(-0.918718460988264 0.394913141639216 0)
(0 0 1)
(-0.941678518305195 0.336513845424721 0)
(0 0 1)
(-0.960930016446391 0.276791444037452 0)
(0 0 1)
(-0.976398737049199 0.215975707635671 0)
(0 0 1)
(-0.988021971047085 0.15431326815356 0)
(0 0 1)
(-0.995755144523454 0.0920417956967104 0)
(0 0 1)
(-0.999567521497435 0.0294069714094389 0)
(0 0 1)
(-0.89214186343215 0.451755349178968 0)
(0 0 1)
(-0.862050546017643 0.506822312167374 0)
(0 0 1)
(-0.828566809527191 0.559890205442041 0)
(0 0 1)
(-0.791819701932722 0.610754909625109 0)
(0 0 1)
(-0.751955283813531 0.659214116311925 0)
(0 0 1)
(-0.709128308628072 0.705079457864353 0)
(0 0 1)
(-0.663511172871216 0.748166374194312 0)
(0 0 1)
(0.396604787814053 -0.917989456520591 0)
(0 0 1)
(0.453491976873933 -0.891260358655636 0)
(0 0 1)
(0.508587071357233 -0.861010563726295 0)
(0 0 1)
(0.561673940759432 -0.827358679335493 0)
(0 0 1)
(0.612540023727583 -0.79043957348542 0)
(0 0 1)
(-0.61528017766991 0.788308507480722 0)
(0 0 1)
(-0.564627515401079 0.825345848024938 0)
(0 0 1)
(-0.511750357044983 0.85913419910066 0)
(0 0 1)
(0.660987684146797 -0.750396749330815 0)
(0 0 1)
(0.706824009289882 -0.707389440047967 0)
(0 0 1)
(0.749868088940065 -0.661587370790416 0)
(0 0 1)
(0.789949151294312 -0.613172356168636 0)
(0 0 1)
(0.826909855675703 -0.562334500618972 0)
(0 0 1)
(0.860603900557355 -0.509274902528553 0)
(0 0 1)
(-0.456859319482588 0.889538960474417 0)
(0 0 1)
(0.890897531781027 -0.454204345935257 0)
(0 0 1)
(-0.4001685195794 0.916441572571667 0)
(0 0 1)
(0.917672047872537 -0.397338662293798 0)
(0 0 1)
(-0.341902075825152 0.939735585442231 0)
(0 0 1)
(0.940821033035512 -0.3389037972611 0)
(0 0 1)
(0.96025351548048 -0.279129335626659 0)
(0 0 1)
(0.975892313685946 -0.218252587816713 0)
(0 0 1)
(0.987675744214237 -0.156513974746198 0)
(0 0 1)
(0.995557509561334 -0.0941554308366427 0)
(0 0 1)
(0.999506049119262 -0.0314270229898178 0)
(0 0 1)
(0.999509215630115 0.0313261531387457 0)
(0 0 1)
(0.995586008665358 0.0938536059498087 0)
(0 0 1)
(0.987754725864324 0.156014747805119 0)
(0 0 1)
(0.976046430993548 0.217562323357599 0)
(0 0 1)
(0.960506633836664 0.278257086802405 0)
(0 0 1)
(0.94119714334943 0.337857865604567 0)
(0 0 1)
(0 0 1)
(0.918193156742192 0.396132966201765 0)
(0 0 1)
(0.40003241972024 0.916500989182647 0)
(0 0 1)
(0.891584980544329 0.452853422718398 0)
(0 0 1)
(0.456640691877722 0.889651211723693 0)
(0 0 1)
(0.861476891077559 0.507796776416849 0)
(0 0 1)
(0.511455060110857 0.859310026408979 0)
(0 0 1)
(0.827987833140705 0.560746063892525 0)
(0 0 1)
(0.564261038129726 0.825596439459839 0)
(0 0 1)
(0.791247443659204 0.611496102115766 0)
(0 0 1)
(0.614854392528836 0.788640650732636 0)
(0 0 1)
(0.751403667966447 0.659842805345765 0)
(0 0 1)
(0.663032084581497 0.748590979651448 0)
(0 0 1)
(0.708607749745431 0.705602619751881 0)
(0 -0 -1)
(-0.4001685195794 0.916441572571667 0)
(-0.456859319482588 0.889538960474417 0)
(0 -0 -1)
(-0.511750357044983 0.85913419910066 0)
(-0.564627515401079 0.825345848024938 0)
(0 -0 -1)
(-0.61528017766991 0.788308507480722 0)
(0 -0 -1)
(-0.663511172871216 0.748166374194312 0)
(-0.709128308628072 0.705079457864353 0)
(0 -0 -1)
(-0.751955283813531 0.659214116311925 0)
(-0.791819701932722 0.610754909625109 0)
(0 -0 -1)
(-0.828566809527191 0.559890205442041 0)
(0 -0 -1)
(-0.862050546017643 0.506822312167374 0)
(0 -0 -1)
(-0.89214186343215 0.451755349178968 0)
(0 -0 -1)
(-0.918718460988264 0.394913141639216 0)
(-0.941678518305195 0.336513845424721 0)
(0 -0 -1)
(-0.960930016446391 0.276791444037452 0)
(0 -0 -1)
(-0.976398737049199 0.215975707635671 0)
(-0.988021971047085 0.15431326815356 0)
(0 -0 -1)
(-0.995755144523454 0.0920417956967104 0)
(-0.999567521497435 0.0294069714094389 0)
(0 -0 -1)
(-0.999443966878968 -0.0333430212973041 0)
(0 0 -1)
(-0.995385186538176 -0.0959600459585136 0)
(-0.987406607644155 -0.158203006231432 0)
(0 0 -1)
(-0.975540653407 -0.219819092779138 0)
(0 0 -1)
(-0.959833309326874 -0.280570879291885 0)
(-0.940346098301528 -0.340219363659821 0)
(0 0 -1)
(-0.917156339084894 -0.398527602151212 0)
(0 0 -1)
(-0.890356072871134 -0.455264827876579 0)
(-0.860048962462858 -0.510211507285519 0)
(0 0 -1)
(-0.826355898691242 -0.563148229774533 0)
(-0.789409243103897 -0.613867287695095 0)
(0 0 -1)
(-0.74935341887089 -0.662170260300557 0)
(0 0 -1)
(-0.706347661029499 -0.707865087257562 0)
(0 0 -1)
(-0.660559344095136 -0.750773836070893 0)
(-0.612172211133607 -0.79072446776092 0)
(0 0 -1)
(-0.561373408511171 -0.827562623743092 0)
(-0.508364164137222 -0.861142193032639 0)
(0 0 -1)
(-0.453352992368783 -0.891331063247697 0)
(0 0 -1)
(-0.396557693680436 -0.91800980146339 0)
(0 0 -1)
(0.453491976873933 -0.891260358655636 0)
(0 0 -1)
(0.508587071357233 -0.861010563726295 0)
(0.561673940759432 -0.827358679335493 0)
(0 0 -1)
(0.612540023727583 -0.79043957348542 0)
(0.660987684146797 -0.750396749330815 0)
(0 0 -1)
(0.706824009289882 -0.707389440047967 0)
(0 0 -1)
(0.749868088940065 -0.661587370790416 0)
(0.789949151294312 -0.613172356168636 0)
(0 0 -1)
(0.860603900557355 -0.509274902528553 0)
(0.890897531781027 -0.454204345935257 0)
(0 0 -1)
(0.917672047872537 -0.397338662293798 0)
(0 0 -1)
(0.940821033035512 -0.3389037972611 0)
(0.96025351548048 -0.279129335626659 0)
(0 0 -1)
(0.975892313685946 -0.218252587816713 0)
(0.987675744214237 -0.156513974746198 0)
(0 0 -1)
(0.995557509561334 -0.0941554308366427 0)
(0 0 -1)
(0.826909855675703 -0.562334500618972 0)
(0 0 -1)
(0.999506049119262 -0.0314270229898178 0)
(0 0 -1)
(0.999509215630115 0.0313261531387457 -0)
(0 0 -1)
(0.995586008665358 0.0938536059498087 0)
(0 0 -1)
(0.987754725864324 0.156014747805119 -0)
(0.976046430993548 0.217562323357599 -0)
(0 0 -1)
(0.960506633836664 0.278257086802405 0)
(0.34185611364133 0.939752306496795 -0)
(0 0 -1)
(0.94119714334943 0.337857865604567 0)
(0.918193156742192 0.396132966201765 -0)
(0 0 -1)
(0.891584980544329 0.452853422718398 0)
(-0 -0 -1)
(0.456640691877722 0.889651211723693 0)
(0.40003241972024 0.916500989182647 -0)
(-0 -0 -1)
(0.564261038129726 0.825596439459839 -0)
(0.511455060110857 0.859310026408979 -0)
(0 0 -1)
(0.827987833140705 0.560746063892525 -0)
(0.791247443659204 0.611496102115766 -0)
(0 0 -1)
(0.751403667966447 0.659842805345765 -0)
(0 0 -1)
(0.861476891077559 0.507796776416849 -0)
(0 0 -1)
(0.708607749745431 0.705602619751881 -0)
(-0 -0 -1)
(0.663032084581497 0.748590979651448 -0)
(0.614854392528836 0.788640650732636 -0)
(0 -1 0)
(0 0 1)
(-1 0 0)
(0 0 1)
(0 1 0)
(1 0 0)
(0 -1 0)
(0 0 1)
(-1 0 0)
(0 0 1)
(0 1 0)
(1 0 0)
)

// normal volume types

320
(
0
0
0
0
0
0
0
0
0
0
0
0
0
0
0
0
0
0
0
0
0
0
0
0
0
0
0
0
0
0
0
0
0
0
0
0
0
0
0
0
0
0
0
0
0
0
0
0
0
0
0
0
0
0
0
0
0
0
0
0
0
0
0
0
0
0
0
0
0
0
0
0
0
0
0
0
0
0
0
0
0
0
0
0
0
0
0
0
0
0
0
0
0
0
0
0
0
0
0
0
0
0
0
0
0
0
0
0
0
0
0
0
0
0
0
0
0
0
0
0
0
0
0
0
0
0
0
0
0
0
0
0
0
0
0
0
0
0
0
0
0
0
0
0
0
0
0
0
0
0
0
0
0
0
0
0
0
0
0
0
0
0
0
0
0
0
0
0
0
0
0
0
0
0
0
0
0
0
0
0
0
0
0
0
0
0
0
0
0
0
0
0
0
0
0
0
0
0
0
0
0
0
0
0
0
0
0
0
0
0
0
0
0
0
0
0
0
0
0
0
0
0
0
0
0
0
0
0
0
0
0
0
0
0
0
0
0
0
0
0
0
0
0
0
0
0
0
0
0
0
0
0
0
0
0
0
0
0
0
0
0
0
0
0
0
0
0
0
0
0
0
0
0
0
0
0
0
0
0
0
0
0
0
0
0
0
0
0
0
0
0
0
0
0
0
0
0
0
0
0
0
0
0
0
0
0
0
0
0
0
0
0
0
0
0
0
0
0
0
0
)

// normalDirections

188
(
2(1 -1)
2(1 -1)
2(1 -1)
2(1 -1)
2(1 -1)
2(1 -1)
2(1 -1)
2(1 -1)
2(1 -1)
2(1 -1)
2(1 -1)
2(1 -1)
2(1 -1)
2(1 -1)
2(1 -1)
2(1 -1)
2(1 -1)
2(1 -1)
2(1 -1)
2(1 -1)
2(1 -1)
2(1 -1)
2(1 -1)
2(1 -1)
2(1 -1)
2(1 -1)
2(1 -1)
2(1 -1)
2(1 -1)
2(1 -1)
2(1 -1)
2(1 -1)
2(1 -1)
2(1 -1)
2(1 -1)
2(1 -1)
2(1 -1)
2(1 -1)
2(1 -1)
2(1 -1)
2(1 -1)
2(1 -1)
2(1 -1)
2(1 -1)
2(1 -1)
2(1 -1)
2(1 -1)
2(1 -1)
2(1 -1)
2(1 -1)
2(1 -1)
2(1 -1)
2(1 -1)
2(1 -1)
2(1 -1)
2(1 -1)
2(1 -1)
2(1 -1)
2(1 -1)
2(1 -1)
2(1 -1)
2(1 -1)
2(1 -1)
2(1 -1)
2(1 -1)
2(1 -1)
2(1 -1)
2(1 -1)
2(1 -1)
2(1 -1)
2(1 -1)
2(1 -1)
2(1 -1)
2(1 -1)
2(1 -1)
2(1 -1)
2(1 -1)
2(1 -1)
2(1 -1)
2(1 -1)
2(1 -1)
2(1 -1)
2(1 -1)
2(1 -1)
2(1 -1)
2(1 -1)
2(1 -1)
2(1 -1)
2(1 -1)
2(1 -1)
2(1 -1)
2(1 -1)
2(1 -1)
2(1 -1)
2(1 -1)
2(1 -1)
2(1 -1)
2(1 -1)
2(1 -1)
2(1 -1)
2(1 -1)
2(1 -1)
2(1 -1)
2(1 -1)
2(1 -1)
2(1 -1)
2(1 -1)
2(1 -1)
2(1 -1)
2(1 -1)
2(1 -1)
2(1 -1)
2(1 -1)
2(1 -1)
2(1 -1)
2(1 -1)
2(1 -1)
2(1 -1)
2(1 -1)
2(1 -1)
2(1 -1)
2(1 -1)
2(1 -1)
2(1 -1)
2(1 -1)
2(1 -1)
2(1 -1)
2(1 -1)
2(1 -1)
2(1 -1)
2(1 -1)
2(1 -1)
2(1 -1)
2(1 -1)
2(1 -1)
2(1 -1)
2(1 -1)
2(1 -1)
2(1 -1)
2(1 -1)
2(1 -1)
2(1 -1)
2(1 -1)
2(1 -1)
2(1 -1)
2(1 -1)
2(1 -1)
2(1 -1)
2(1 -1)
2(1 -1)
2(1 -1)
2(1 -1)
2(1 -1)
2(1 -1)
2(1 -1)
2(1 -1)
2(1 -1)
2(1 -1)
2(1 -1)
2(1 -1)
2(1 -1)
2(1 -1)
2(1 -1)
2(1 -1)
2(1 -1)
2(1 -1)
2(1 -1)
2(1 -1)
2{1}
2{1}
2{1}
2{1}
2(1 -1)
2(1 -1)
2(1 -1)
2(1 -1)
2(1 -1)
2(1 -1)
2(1 -1)
2(1 -1)
2(1 -1)
2(1 -1)
2(1 -1)
2(1 -1)
2(1 -1)
2(1 -1)
2(1 -1)
2(1 -1)
)

// edgeNormals

188
(
2(0 1)
2(0 2)
2(3 4)
2(3 5)
2(6 7)
2(8 9)
2(10 11)
2(12 13)
2(20 21)
2(22 23)
2(24 25)
2(26 27)
2(28 29)
2(30 31)
2(32 33)
2(34 35)
2(36 37)
2(38 39)
2(40 41)
2(42 43)
2(44 45)
2(46 47)
2(48 49)
2(50 51)
2(52 53)
2(54 55)
2(56 57)
2(58 59)
2(60 61)
2(62 63)
2(64 2)
2(65 66)
2(67 68)
2(69 70)
2(71 72)
2(73 74)
2(75 76)
2(77 78)
2(79 80)
2(81 82)
2(83 84)
2(85 86)
2(87 88)
2(89 90)
2(91 92)
2(93 94)
2(95 96)
2(97 98)
2(99 100)
2(101 102)
2(103 104)
2(105 106)
2(107 108)
2(109 110)
2(111 112)
2(113 114)
2(115 116)
2(117 118)
2(119 120)
2(121 122)
2(123 124)
2(125 126)
2(127 128)
2(129 130)
2(131 132)
2(133 134)
2(135 136)
2(137 138)
2(139 140)
2(141 142)
2(143 144)
2(145 146)
2(147 148)
2(149 150)
2(151 152)
2(153 154)
2(155 19)
2(156 157)
2(158 159)
2(160 161)
2(162 163)
2(164 165)
2(166 167)
2(168 169)
2(170 171)
2(172 173)
2(174 175)
2(176 177)
2(178 179)
2(180 181)
2(16 182)
2(183 182)
2(184 185)
2(186 185)
2(187 188)
2(189 190)
2(191 190)
2(192 193)
2(194 193)
2(195 196)
2(197 198)
2(199 200)
2(201 202)
2(203 202)
2(204 205)
2(206 207)
2(208 207)
2(209 210)
2(211 210)
2(212 213)
2(214 215)
2(216 215)
2(217 218)
2(219 220)
2(221 220)
2(222 223)
2(224 225)
2(226 225)
2(227 228)
2(229 228)
2(230 231)
2(232 233)
2(234 235)
2(236 235)
2(237 238)
2(239 238)
2(240 241)
2(242 243)
2(244 4)
2(245 5)
2(245 246)
2(247 248)
2(247 249)
2(250 251)
2(250 252)
2(253 254)
2(255 256)
2(255 257)
2(258 259)
2(258 260)
2(261 262)
2(263 264)
2(263 265)
2(266 267)
2(266 268)
2(269 270)
2(271 272)
2(273 274)
2(275 276)
2(277 278)
2(279 280)
2(279 281)
2(282 283)
2(18 284)
2(285 286)
2(285 287)
2(288 289)
2(290 291)
2(290 292)
2(293 294)
2(293 295)
2(296 297)
2(296 298)
2(299 300)
2(301 302)
2(303 304)
2(305 306)
2(305 307)
2(14 15)
2(14 16)
2(17 18)
2(17 19)
2(308 8)
2(308 309)
2(6 10)
2(310 311)
2(310 312)
2(309 313)
2(311 312)
2(313 12)
2(314 25)
2(314 315)
2(27 23)
2(316 317)
2(316 318)
2(315 319)
2(317 318)
2(21 319)
)

// featurePointNormals

24
(
3(0 1 5)
3(0 1 2)
3(0 2 4)
3(3 4 5)
3(308 8 309)
3(308 309 10)
3(310 311 312)
3(309 313 312)
3(314 25 315)
3(314 315 23)
3(316 317 318)
3(315 319 318)
3(6 7 8)
3(6 7 10)
3(8 9 12)
3(10 11 12)
3(155 19 14)
3(129 130 14)
3(16 182 14)
3(18 284 17)
3(20 21 23)
3(20 21 25)
3(22 23 27)
3(24 25 27)
)

// featurePointEdges

24
(
3(3 45 0)
3(0 30 1)
3(2 128 1)
3(2 129 3)
3(172 175 173)
3(174 177 173)
3(175 178 176)
3(178 179 177)
3(180 183 181)
3(182 185 181)
3(183 186 184)
3(186 187 185)
3(4 5 172)
3(174 6 4)
3(5 7 176)
3(6 7 179)
3(171 76 168)
3(168 63 169)
3(170 90 169)
3(170 153 171)
3(8 187 9)
3(10 184 8)
3(9 182 11)
3(11 180 10)
)

// regionEdges

16
(
0
1
2
3
4
5
6
7
168
169
170
171
8
9
10
11
)



// ************************************************************************* //
