/*--------------------------------*- C++ -*----------------------------------*\
| =========                 |                                                 |
| \\      /  F ield         | OpenFOAM                                       |
|  \\    /   O peration     | Version:  v2312                               |
|   \\  /    A nd           | Website:  www.openfoam.com                    |
|    \\/     M anipulation  |                                               |
\*---------------------------------------------------------------------------*/
FoamFile
{
    version     2.0;
    format      ascii;
    class       volVectorField;
    location    "0";
    object      F;
}
// * * * * * * * * * * * * * * * * * * * * * * * * * * * * * * * * * * * * * //

dimensions      [0 1 -2 0 0 0 0]; // TODO I just made it into acceleration, maybe should be fixed later

internalField   nonuniform List<vector>
400                                   // Number of cells
(
        (14.250000000000044 -14.250000000000002 0.0)
        (14.250000000000044 -12.750000000000004 0.0)
        (14.250000000000044 -11.250000000000002 0.0)
        (14.250000000000044 -9.750000000000002 0.0)
        (14.250000000000044 -8.250000000000004 0.0)
        (14.250000000000044 -6.750000000000003 0.0)
        (14.250000000000044 -5.250000000000003 0.0)
        (14.250000000000044 -3.7500000000000036 0.0)
        (14.250000000000044 -2.2500000000000018 0.0)
        (14.250000000000044 -0.7500000000000028 0.0)
        (14.250000000000044 0.7499999999999964 0.0)
        (14.250000000000044 2.249999999999998 0.0)
        (14.250000000000044 3.749999999999997 0.0)
        (14.250000000000044 5.249999999999998 0.0)
        (14.250000000000044 6.749999999999996 0.0)
        (14.250000000000044 8.249999999999996 0.0)
        (14.250000000000044 9.749999999999998 0.0)
        (14.250000000000044 11.249999999999995 0.0)
        (14.250000000000044 12.749999999999996 0.0)
        (14.250000000000044 14.249999999999998 0.0)
        (12.750000000000044 -14.250000000000002 0.0)
        (12.750000000000044 -12.750000000000004 0.0)
        (12.750000000000044 -11.250000000000002 0.0)
        (12.750000000000044 -9.750000000000002 0.0)
        (12.750000000000044 -8.250000000000004 0.0)
        (12.750000000000044 -6.750000000000003 0.0)
        (12.750000000000044 -5.250000000000003 0.0)
        (12.750000000000044 -3.7500000000000036 0.0)
        (12.750000000000044 -2.2500000000000018 0.0)
        (12.750000000000044 -0.7500000000000028 0.0)
        (12.750000000000044 0.7499999999999964 0.0)
        (12.750000000000044 2.249999999999998 0.0)
        (12.750000000000044 3.749999999999997 0.0)
        (12.750000000000044 5.249999999999998 0.0)
        (12.750000000000044 6.749999999999996 0.0)
        (12.750000000000044 8.249999999999996 0.0)
        (12.750000000000044 9.749999999999998 0.0)
        (12.750000000000044 11.249999999999995 0.0)
        (12.750000000000044 12.749999999999996 0.0)
        (12.750000000000044 14.249999999999998 0.0)
        (11.250000000000043 -14.250000000000002 0.0)
        (11.250000000000043 -12.750000000000004 0.0)
        (11.250000000000043 -11.250000000000002 0.0)
        (11.250000000000043 -9.750000000000002 0.0)
        (11.250000000000043 -8.250000000000004 0.0)
        (11.250000000000043 -6.750000000000003 0.0)
        (11.250000000000043 -5.250000000000003 0.0)
        (11.250000000000043 -3.7500000000000036 0.0)
        (11.250000000000043 -2.2500000000000018 0.0)
        (11.250000000000043 -0.7500000000000028 0.0)
        (11.250000000000043 0.7499999999999964 0.0)
        (11.250000000000043 2.249999999999998 0.0)
        (11.250000000000043 3.749999999999997 0.0)
        (11.250000000000043 5.249999999999998 0.0)
        (11.250000000000043 6.749999999999996 0.0)
        (11.250000000000043 8.249999999999996 0.0)
        (11.250000000000043 9.749999999999998 0.0)
        (11.250000000000043 11.249999999999995 0.0)
        (11.250000000000043 12.749999999999996 0.0)
        (11.250000000000043 14.249999999999998 0.0)
        (9.750000000000044 -14.250000000000002 0.0)
        (9.750000000000044 -12.750000000000004 0.0)
        (9.750000000000044 -11.250000000000002 0.0)
        (9.750000000000044 -9.750000000000002 0.0)
        (9.750000000000044 -8.250000000000004 0.0)
        (9.750000000000044 -6.750000000000003 0.0)
        (9.750000000000044 -5.250000000000003 0.0)
        (9.750000000000044 -3.7500000000000036 0.0)
        (9.750000000000044 -2.2500000000000018 0.0)
        (9.750000000000044 -0.7500000000000028 0.0)
        (9.750000000000044 0.7499999999999964 0.0)
        (9.750000000000044 2.249999999999998 0.0)
        (9.750000000000044 3.749999999999997 0.0)
        (9.750000000000044 5.249999999999998 0.0)
        (9.750000000000044 6.749999999999996 0.0)
        (9.750000000000044 8.249999999999996 0.0)
        (9.750000000000044 9.749999999999998 0.0)
        (9.750000000000044 11.249999999999995 0.0)
        (9.750000000000044 12.749999999999996 0.0)
        (9.750000000000044 14.249999999999998 0.0)
        (8.250000000000044 -14.250000000000002 0.0)
        (8.250000000000044 -12.750000000000004 0.0)
        (8.250000000000044 -11.250000000000002 0.0)
        (8.250000000000044 -9.750000000000002 0.0)
        (8.250000000000044 -8.250000000000004 0.0)
        (8.250000000000044 -6.750000000000003 0.0)
        (8.250000000000044 -5.250000000000003 0.0)
        (8.250000000000044 -3.7500000000000036 0.0)
        (8.250000000000044 -2.2500000000000018 0.0)
        (8.250000000000044 -0.7500000000000028 0.0)
        (8.250000000000044 0.7499999999999964 0.0)
        (8.250000000000044 2.249999999999998 0.0)
        (8.250000000000044 3.749999999999997 0.0)
        (8.250000000000044 5.249999999999998 0.0)
        (8.250000000000044 6.749999999999996 0.0)
        (8.250000000000044 8.249999999999996 0.0)
        (8.250000000000044 9.749999999999998 0.0)
        (8.250000000000044 11.249999999999995 0.0)
        (8.250000000000044 12.749999999999996 0.0)
        (8.250000000000044 14.249999999999998 0.0)
        (6.750000000000044 -14.250000000000002 0.0)
        (6.750000000000044 -12.750000000000004 0.0)
        (6.750000000000044 -11.250000000000002 0.0)
        (6.750000000000044 -9.750000000000002 0.0)
        (6.750000000000044 -8.250000000000004 0.0)
        (6.750000000000044 -6.750000000000003 0.0)
        (6.750000000000044 -5.250000000000003 0.0)
        (6.750000000000044 -3.7500000000000036 0.0)
        (6.750000000000044 -2.2500000000000018 0.0)
        (6.750000000000044 -0.7500000000000028 0.0)
        (6.750000000000044 0.7499999999999964 0.0)
        (6.750000000000044 2.249999999999998 0.0)
        (6.750000000000044 3.749999999999997 0.0)
        (6.750000000000044 5.249999999999998 0.0)
        (6.750000000000044 6.749999999999996 0.0)
        (6.750000000000044 8.249999999999996 0.0)
        (6.750000000000044 9.749999999999998 0.0)
        (6.750000000000044 11.249999999999995 0.0)
        (6.750000000000044 12.749999999999996 0.0)
        (6.750000000000044 14.249999999999998 0.0)
        (5.250000000000044 -14.250000000000002 0.0)
        (5.250000000000044 -12.750000000000004 0.0)
        (5.250000000000044 -11.250000000000002 0.0)
        (5.250000000000044 -9.750000000000002 0.0)
        (5.250000000000044 -8.250000000000004 0.0)
        (5.250000000000044 -6.750000000000003 0.0)
        (5.250000000000044 -5.250000000000003 0.0)
        (5.250000000000044 -3.7500000000000036 0.0)
        (5.250000000000044 -2.2500000000000018 0.0)
        (5.250000000000044 -0.7500000000000028 0.0)
        (5.250000000000044 0.7499999999999964 0.0)
        (5.250000000000044 2.249999999999998 0.0)
        (5.250000000000044 3.749999999999997 0.0)
        (5.250000000000044 5.249999999999998 0.0)
        (5.250000000000044 6.749999999999996 0.0)
        (5.250000000000044 8.249999999999996 0.0)
        (5.250000000000044 9.749999999999998 0.0)
        (5.250000000000044 11.249999999999995 0.0)
        (5.250000000000044 12.749999999999996 0.0)
        (5.250000000000044 14.249999999999998 0.0)
        (3.750000000000045 -14.250000000000002 0.0)
        (3.750000000000045 -12.750000000000004 0.0)
        (3.750000000000045 -11.250000000000002 0.0)
        (3.750000000000045 -9.750000000000002 0.0)
        (3.750000000000045 -8.250000000000004 0.0)
        (3.750000000000045 -6.750000000000003 0.0)
        (3.750000000000045 -5.250000000000003 0.0)
        (3.750000000000045 -3.7500000000000036 0.0)
        (3.750000000000045 -2.2500000000000018 0.0)
        (3.750000000000045 -0.7500000000000028 0.0)
        (3.750000000000045 0.7499999999999964 0.0)
        (3.750000000000045 2.249999999999998 0.0)
        (3.750000000000045 3.749999999999997 0.0)
        (3.750000000000045 5.249999999999998 0.0)
        (3.750000000000045 6.749999999999996 0.0)
        (3.750000000000045 8.249999999999996 0.0)
        (3.750000000000045 9.749999999999998 0.0)
        (3.750000000000045 11.249999999999995 0.0)
        (3.750000000000045 12.749999999999996 0.0)
        (3.750000000000045 14.249999999999998 0.0)
        (2.2500000000000435 -14.250000000000002 0.0)
        (2.2500000000000435 -12.750000000000004 0.0)
        (2.2500000000000435 -11.250000000000002 0.0)
        (2.2500000000000435 -9.750000000000002 0.0)
        (2.2500000000000435 -8.250000000000004 0.0)
        (2.2500000000000435 -6.750000000000003 0.0)
        (2.2500000000000435 -5.250000000000003 0.0)
        (2.2500000000000435 -3.7500000000000036 0.0)
        (2.2500000000000435 -2.2500000000000018 0.0)
        (2.2500000000000435 -0.7500000000000028 0.0)
        (2.2500000000000435 0.7499999999999964 0.0)
        (2.2500000000000435 2.249999999999998 0.0)
        (2.2500000000000435 3.749999999999997 0.0)
        (2.2500000000000435 5.249999999999998 0.0)
        (2.2500000000000435 6.749999999999996 0.0)
        (2.2500000000000435 8.249999999999996 0.0)
        (2.2500000000000435 9.749999999999998 0.0)
        (2.2500000000000435 11.249999999999995 0.0)
        (2.2500000000000435 12.749999999999996 0.0)
        (2.2500000000000435 14.249999999999998 0.0)
        (0.7500000000000444 -14.250000000000002 0.0)
        (0.7500000000000444 -12.750000000000004 0.0)
        (0.7500000000000444 -11.250000000000002 0.0)
        (0.7500000000000444 -9.750000000000002 0.0)
        (0.7500000000000444 -8.250000000000004 0.0)
        (0.7500000000000444 -6.750000000000003 0.0)
        (0.7500000000000444 -5.250000000000003 0.0)
        (0.7500000000000444 -3.7500000000000036 0.0)
        (0.7500000000000444 -2.2500000000000018 0.0)
        (0.7500000000000444 -0.7500000000000028 0.0)
        (0.7500000000000444 0.7499999999999964 0.0)
        (0.7500000000000444 2.249999999999998 0.0)
        (0.7500000000000444 3.749999999999997 0.0)
        (0.7500000000000444 5.249999999999998 0.0)
        (0.7500000000000444 6.749999999999996 0.0)
        (0.7500000000000444 8.249999999999996 0.0)
        (0.7500000000000444 9.749999999999998 0.0)
        (0.7500000000000444 11.249999999999995 0.0)
        (0.7500000000000444 12.749999999999996 0.0)
        (0.7500000000000444 14.249999999999998 0.0)
        (-0.7499999999999549 -14.250000000000002 -0.0)
        (-0.7499999999999549 -12.750000000000004 -0.0)
        (-0.7499999999999549 -11.250000000000002 -0.0)
        (-0.7499999999999549 -9.750000000000002 -0.0)
        (-0.7499999999999549 -8.250000000000004 -0.0)
        (-0.7499999999999549 -6.750000000000003 -0.0)
        (-0.7499999999999549 -5.250000000000003 -0.0)
        (-0.7499999999999549 -3.7500000000000036 -0.0)
        (-0.7499999999999549 -2.2500000000000018 -0.0)
        (-0.7499999999999549 -0.7500000000000028 -0.0)
        (-0.7499999999999549 0.7499999999999964 0.0)
        (-0.7499999999999549 2.249999999999998 0.0)
        (-0.7499999999999549 3.749999999999997 0.0)
        (-0.7499999999999549 5.249999999999998 0.0)
        (-0.7499999999999549 6.749999999999996 0.0)
        (-0.7499999999999549 8.249999999999996 0.0)
        (-0.7499999999999549 9.749999999999998 0.0)
        (-0.7499999999999549 11.249999999999995 0.0)
        (-0.7499999999999549 12.749999999999996 0.0)
        (-0.7499999999999549 14.249999999999998 0.0)
        (-2.249999999999956 -14.250000000000002 -0.0)
        (-2.249999999999956 -12.750000000000004 -0.0)
        (-2.249999999999956 -11.250000000000002 -0.0)
        (-2.249999999999956 -9.750000000000002 -0.0)
        (-2.249999999999956 -8.250000000000004 -0.0)
        (-2.249999999999956 -6.750000000000003 -0.0)
        (-2.249999999999956 -5.250000000000003 -0.0)
        (-2.249999999999956 -3.7500000000000036 -0.0)
        (-2.249999999999956 -2.2500000000000018 -0.0)
        (-2.249999999999956 -0.7500000000000028 -0.0)
        (-2.249999999999956 0.7499999999999964 0.0)
        (-2.249999999999956 2.249999999999998 0.0)
        (-2.249999999999956 3.749999999999997 0.0)
        (-2.249999999999956 5.249999999999998 0.0)
        (-2.249999999999956 6.749999999999996 0.0)
        (-2.249999999999956 8.249999999999996 0.0)
        (-2.249999999999956 9.749999999999998 0.0)
        (-2.249999999999956 11.249999999999995 0.0)
        (-2.249999999999956 12.749999999999996 0.0)
        (-2.249999999999956 14.249999999999998 0.0)
        (-3.7499999999999556 -14.250000000000002 -0.0)
        (-3.7499999999999556 -12.750000000000004 -0.0)
        (-3.7499999999999556 -11.250000000000002 -0.0)
        (-3.7499999999999556 -9.750000000000002 -0.0)
        (-3.7499999999999556 -8.250000000000004 -0.0)
        (-3.7499999999999556 -6.750000000000003 -0.0)
        (-3.7499999999999556 -5.250000000000003 -0.0)
        (-3.7499999999999556 -3.7500000000000036 -0.0)
        (-3.7499999999999556 -2.2500000000000018 -0.0)
        (-3.7499999999999556 -0.7500000000000028 -0.0)
        (-3.7499999999999556 0.7499999999999964 0.0)
        (-3.7499999999999556 2.249999999999998 0.0)
        (-3.7499999999999556 3.749999999999997 0.0)
        (-3.7499999999999556 5.249999999999998 0.0)
        (-3.7499999999999556 6.749999999999996 0.0)
        (-3.7499999999999556 8.249999999999996 0.0)
        (-3.7499999999999556 9.749999999999998 0.0)
        (-3.7499999999999556 11.249999999999995 0.0)
        (-3.7499999999999556 12.749999999999996 0.0)
        (-3.7499999999999556 14.249999999999998 0.0)
        (-5.2499999999999565 -14.250000000000002 -0.0)
        (-5.2499999999999565 -12.750000000000004 -0.0)
        (-5.2499999999999565 -11.250000000000002 -0.0)
        (-5.2499999999999565 -9.750000000000002 -0.0)
        (-5.2499999999999565 -8.250000000000004 -0.0)
        (-5.2499999999999565 -6.750000000000003 -0.0)
        (-5.2499999999999565 -5.250000000000003 -0.0)
        (-5.2499999999999565 -3.7500000000000036 -0.0)
        (-5.2499999999999565 -2.2500000000000018 -0.0)
        (-5.2499999999999565 -0.7500000000000028 -0.0)
        (-5.2499999999999565 0.7499999999999964 0.0)
        (-5.2499999999999565 2.249999999999998 0.0)
        (-5.2499999999999565 3.749999999999997 0.0)
        (-5.2499999999999565 5.249999999999998 0.0)
        (-5.2499999999999565 6.749999999999996 0.0)
        (-5.2499999999999565 8.249999999999996 0.0)
        (-5.2499999999999565 9.749999999999998 0.0)
        (-5.2499999999999565 11.249999999999995 0.0)
        (-5.2499999999999565 12.749999999999996 0.0)
        (-5.2499999999999565 14.249999999999998 0.0)
        (-6.749999999999954 -14.250000000000002 -0.0)
        (-6.749999999999954 -12.750000000000004 -0.0)
        (-6.749999999999954 -11.250000000000002 -0.0)
        (-6.749999999999954 -9.750000000000002 -0.0)
        (-6.749999999999954 -8.250000000000004 -0.0)
        (-6.749999999999954 -6.750000000000003 -0.0)
        (-6.749999999999954 -5.250000000000003 -0.0)
        (-6.749999999999954 -3.7500000000000036 -0.0)
        (-6.749999999999954 -2.2500000000000018 -0.0)
        (-6.749999999999954 -0.7500000000000028 -0.0)
        (-6.749999999999954 0.7499999999999964 0.0)
        (-6.749999999999954 2.249999999999998 0.0)
        (-6.749999999999954 3.749999999999997 0.0)
        (-6.749999999999954 5.249999999999998 0.0)
        (-6.749999999999954 6.749999999999996 0.0)
        (-6.749999999999954 8.249999999999996 0.0)
        (-6.749999999999954 9.749999999999998 0.0)
        (-6.749999999999954 11.249999999999995 0.0)
        (-6.749999999999954 12.749999999999996 0.0)
        (-6.749999999999954 14.249999999999998 0.0)
        (-8.249999999999956 -14.250000000000002 -0.0)
        (-8.249999999999956 -12.750000000000004 -0.0)
        (-8.249999999999956 -11.250000000000002 -0.0)
        (-8.249999999999956 -9.750000000000002 -0.0)
        (-8.249999999999956 -8.250000000000004 -0.0)
        (-8.249999999999956 -6.750000000000003 -0.0)
        (-8.249999999999956 -5.250000000000003 -0.0)
        (-8.249999999999956 -3.7500000000000036 -0.0)
        (-8.249999999999956 -2.2500000000000018 -0.0)
        (-8.249999999999956 -0.7500000000000028 -0.0)
        (-8.249999999999956 0.7499999999999964 0.0)
        (-8.249999999999956 2.249999999999998 0.0)
        (-8.249999999999956 3.749999999999997 0.0)
        (-8.249999999999956 5.249999999999998 0.0)
        (-8.249999999999956 6.749999999999996 0.0)
        (-8.249999999999956 8.249999999999996 0.0)
        (-8.249999999999956 9.749999999999998 0.0)
        (-8.249999999999956 11.249999999999995 0.0)
        (-8.249999999999956 12.749999999999996 0.0)
        (-8.249999999999956 14.249999999999998 0.0)
        (-9.749999999999957 -14.250000000000002 -0.0)
        (-9.749999999999957 -12.750000000000004 -0.0)
        (-9.749999999999957 -11.250000000000002 -0.0)
        (-9.749999999999957 -9.750000000000002 -0.0)
        (-9.749999999999957 -8.250000000000004 -0.0)
        (-9.749999999999957 -6.750000000000003 -0.0)
        (-9.749999999999957 -5.250000000000003 -0.0)
        (-9.749999999999957 -3.7500000000000036 -0.0)
        (-9.749999999999957 -2.2500000000000018 -0.0)
        (-9.749999999999957 -0.7500000000000028 -0.0)
        (-9.749999999999957 0.7499999999999964 0.0)
        (-9.749999999999957 2.249999999999998 0.0)
        (-9.749999999999957 3.749999999999997 0.0)
        (-9.749999999999957 5.249999999999998 0.0)
        (-9.749999999999957 6.749999999999996 0.0)
        (-9.749999999999957 8.249999999999996 0.0)
        (-9.749999999999957 9.749999999999998 0.0)
        (-9.749999999999957 11.249999999999995 0.0)
        (-9.749999999999957 12.749999999999996 0.0)
        (-9.749999999999957 14.249999999999998 0.0)
        (-11.249999999999954 -14.250000000000002 -0.0)
        (-11.249999999999954 -12.750000000000004 -0.0)
        (-11.249999999999954 -11.250000000000002 -0.0)
        (-11.249999999999954 -9.750000000000002 -0.0)
        (-11.249999999999954 -8.250000000000004 -0.0)
        (-11.249999999999954 -6.750000000000003 -0.0)
        (-11.249999999999954 -5.250000000000003 -0.0)
        (-11.249999999999954 -3.7500000000000036 -0.0)
        (-11.249999999999954 -2.2500000000000018 -0.0)
        (-11.249999999999954 -0.7500000000000028 -0.0)
        (-11.249999999999954 0.7499999999999964 0.0)
        (-11.249999999999954 2.249999999999998 0.0)
        (-11.249999999999954 3.749999999999997 0.0)
        (-11.249999999999954 5.249999999999998 0.0)
        (-11.249999999999954 6.749999999999996 0.0)
        (-11.249999999999954 8.249999999999996 0.0)
        (-11.249999999999954 9.749999999999998 0.0)
        (-11.249999999999954 11.249999999999995 0.0)
        (-11.249999999999954 12.749999999999996 0.0)
        (-11.249999999999954 14.249999999999998 0.0)
        (-12.749999999999956 -14.250000000000002 -0.0)
        (-12.749999999999956 -12.750000000000004 -0.0)
        (-12.749999999999956 -11.250000000000002 -0.0)
        (-12.749999999999956 -9.750000000000002 -0.0)
        (-12.749999999999956 -8.250000000000004 -0.0)
        (-12.749999999999956 -6.750000000000003 -0.0)
        (-12.749999999999956 -5.250000000000003 -0.0)
        (-12.749999999999956 -3.7500000000000036 -0.0)
        (-12.749999999999956 -2.2500000000000018 -0.0)
        (-12.749999999999956 -0.7500000000000028 -0.0)
        (-12.749999999999956 0.7499999999999964 0.0)
        (-12.749999999999956 2.249999999999998 0.0)
        (-12.749999999999956 3.749999999999997 0.0)
        (-12.749999999999956 5.249999999999998 0.0)
        (-12.749999999999956 6.749999999999996 0.0)
        (-12.749999999999956 8.249999999999996 0.0)
        (-12.749999999999956 9.749999999999998 0.0)
        (-12.749999999999956 11.249999999999995 0.0)
        (-12.749999999999956 12.749999999999996 0.0)
        (-12.749999999999956 14.249999999999998 0.0)
        (-14.249999999999956 -14.250000000000002 -0.0)
        (-14.249999999999956 -12.750000000000004 -0.0)
        (-14.249999999999956 -11.250000000000002 -0.0)
        (-14.249999999999956 -9.750000000000002 -0.0)
        (-14.249999999999956 -8.250000000000004 -0.0)
        (-14.249999999999956 -6.750000000000003 -0.0)
        (-14.249999999999956 -5.250000000000003 -0.0)
        (-14.249999999999956 -3.7500000000000036 -0.0)
        (-14.249999999999956 -2.2500000000000018 -0.0)
        (-14.249999999999956 -0.7500000000000028 -0.0)
        (-14.249999999999956 0.7499999999999964 0.0)
        (-14.249999999999956 2.249999999999998 0.0)
        (-14.249999999999956 3.749999999999997 0.0)
        (-14.249999999999956 5.249999999999998 0.0)
        (-14.249999999999956 6.749999999999996 0.0)
        (-14.249999999999956 8.249999999999996 0.0)
        (-14.249999999999956 9.749999999999998 0.0)
        (-14.249999999999956 11.249999999999995 0.0)
        (-14.249999999999956 12.749999999999996 0.0)
        (-14.249999999999956 14.249999999999998 0.0)
);

boundaryField
{
    walls
    {
        type            zeroGradient;
    }

    inlet
    {
        type            fixedValue;
        value           uniform 300;
    }

    outlet
    {
        type            zeroGradient;
    }
// WALLS
    fixedWalls {
        type zeroGradient;
    }
    frontAndBack {
        type empty;
    }

    coldEnd {
        type zeroGradient;
    }

    hotEnd {
        type zeroGradient;
    }
}

// ************************************************************************* //
