/*--------------------------------*- C++ -*----------------------------------*\
| =========                 |                                                 |
| \\      /  F ield         | OpenFOAM: The Open Source CFD Toolbox           |
|  \\    /   O peration     | Version:  2406                                  |
|   \\  /    A nd           | Website:  www.openfoam.com                      |
|    \\/     M anipulation  |                                                 |
\*---------------------------------------------------------------------------*/
FoamFile
{
    version     2.0;
    format      ascii;
    arch        "LSB;label=32;scalar=64";
    class       featureEdgeMesh;
    location    "constant/triSurface";
    object      Compound_Geometry.eMesh;
}
// * * * * * * * * * * * * * * * * * * * * * * * * * * * * * * * * * * * * * //


// points:

176
(
(0.0735118985176086 -0.186000004410744 0.0399999991059303)
(-0.0735118985176086 -0.186000004410744 0.0399999991059303)
(-0.0735118985176086 -0.186000004410744 0)
(0.0735118985176086 -0.186000004410744 0)
(-0.0599999986588955 0.0199999995529652 0.00999999977648258)
(-0.100000001490116 0.0199999995529652 0.00999999977648258)
(-0.0599999986588955 -0.0199999995529652 0.00999999977648258)
(-0.100000001490116 -0.0199999995529652 0.00999999977648258)
(0.100000001490116 0.0199999995529652 0.00999999977648258)
(0.0599999986588955 0.0199999995529652 0.00999999977648258)
(0.100000001490116 -0.0199999995529652 0.00999999977648258)
(0.0599999986588955 -0.0199999995529652 0.00999999977648258)
(-0.0599999986588955 0.0199999995529652 0.0399999991059303)
(-0.100000001490116 0.0199999995529652 0.0399999991059303)
(-0.0599999986588955 -0.0199999995529652 0.0399999991059303)
(-0.100000001490116 -0.0199999995529652 0.0399999991059303)
(0.0624499805271626 0.189999997615814 0.0399999991059303)
(-0.0624499805271626 0.189999997615814 0.0399999991059303)
(-0.0624499805271626 0.189999997615814 0)
(0.0624499805271626 0.189999997615814 0)
(0.0599999986588955 -0.0199999995529652 0.0399999991059303)
(0.100000001490116 -0.0199999995529652 0.0399999991059303)
(0.0599999986588955 0.0199999995529652 0.0399999991059303)
(0.100000001490116 0.0199999995529652 0.0399999991059303)
(-0.199999615550041 -0.000393716880353168 0.0399999991059303)
(-0.199581161141396 -0.0129367234185338 0.0399999991059303)
(-0.19837686419487 -0.0254287905991077 0.0399999991059303)
(-0.196391418576241 -0.0378207303583622 0.0399999991059303)
(-0.193632692098618 -0.0500637516379356 0.0399999991059303)
(-0.19011153280735 -0.0621096417307854 0.0399999991059303)
(-0.185841783881187 -0.0739109739661217 0.0399999991059303)
(-0.180840268731117 -0.0854212716221809 0.0399999991059303)
(-0.175126701593399 -0.0965952277183533 0.0399999991059303)
(-0.168723553419113 -0.107388831675053 0.0399999991059303)
(-0.161656051874161 -0.117759585380554 0.0399999991059303)
(-0.153952032327652 -0.127666652202606 0.0399999991059303)
(-0.145641803741455 -0.137071028351784 0.0399999991059303)
(-0.136758103966713 -0.14593568444252 0.0399999991059303)
(-0.127335906028748 -0.154225692152977 0.0399999991059303)
(-0.117412321269512 -0.161908447742462 0.0399999991059303)
(-0.107026427984238 -0.16895367205143 0.0399999991059303)
(-0.0962191075086594 -0.175333634018898 0.0399999991059303)
(-0.0850329101085663 -0.181023210287094 0.0399999991059303)
(-0.18117518723011 0.0847086161375046 0.0399999991059303)
(-0.186131343245506 0.0731787085533142 0.0399999991059303)
(-0.190354585647583 0.0613606609404087 0.0399999991059303)
(-0.19382831454277 0.0493010021746159 0.0399999991059303)
(-0.196538805961609 0.0370472148060799 0.0399999991059303)
(-0.198475435376167 0.0246475525200367 0.0399999991059303)
(-0.199630558490753 0.0121508408337831 0.0399999991059303)
(-0.175505667924881 0.0959049761295319 0.0399999991059303)
(-0.169145047664642 0.106723710894585 0.0399999991059303)
(-0.162118434906006 0.117122210562229 0.0399999991059303)
(-0.154453471302986 0.127059534192085 0.0399999991059303)
(-0.146180346608162 0.136496558785439 0.0399999991059303)
(-0.137331619858742 0.14539609849453 0.0399999991059303)
(-0.127942129969597 0.153723165392876 0.0399999991059303)
(0.0850516706705093 -0.181014403700829 0.0399999991059303)
(0.0962554290890694 -0.175313696265221 0.0399999991059303)
(0.107078939676285 -0.168920397758484 0.0399999991059303)
(0.117479413747787 -0.161859765648842 0.0399999991059303)
(0.127415791153908 -0.154159709811211 0.0399999991059303)
(-0.118048876523972 0.161444917321205 0.0399999991059303)
(-0.107690796256065 0.168530985713005 0.0399999991059303)
(-0.0969086736440659 0.174953445792198 0.0399999991059303)
(0.1368488073349 -0.145850628614426 0.0399999991059303)
(0.145741179585457 -0.136965364217758 0.0399999991059303)
(0.154057785868645 -0.12753900885582 0.0399999991059303)
(0.161765798926353 -0.117608785629272 0.0399999991059303)
(0.16883473098278 -0.107213959097862 0.0399999991059303)
(0.17523667216301 -0.0963955670595169 0.0399999991059303)
(-0.0857449695467949 0.1806870251894 0.0399999991059303)
(0.180946335196495 -0.0851963683962822 0.0399999991059303)
(-0.0742436423897743 0.18570913374424 0.0399999991059303)
(0.185941159725189 -0.0736605897545815 0.0399999991059303)
(0.190201416611671 -0.0618338137865067 0.0399999991059303)
(0.193710267543793 -0.0497627556324005 0.0399999991059303)
(0.196453854441643 -0.0374951101839542 0.0399999991059303)
(0.198421344161034 -0.0250793378800154 0.0399999991059303)
(0.199604943394661 -0.0125644877552986 0.0399999991059303)
(0.200000002980232 -4.89999990395467e-17 0.0399999991059303)
(0.199607476592064 0.0125241596251726 0.0399999991059303)
(0.198431462049484 0.0249991584569216 0.0399999991059303)
(0.196476548910141 0.0373760312795639 0.0399999991059303)
(0.19375042617321 0.0496061928570271 0.0399999991059303)
(0.190263777971268 0.0616416409611702 0.0399999991059303)
(0.186030313372612 0.0734351351857185 0.0399999991059303)
(0.0742253661155701 0.185716435313225 0.0399999991059303)
(0.181066647171974 0.0849403738975525 0.0399999991059303)
(0.0857094004750252 0.180703908205032 0.0399999991059303)
(0.175392255187035 0.0961122065782547 0.0399999991059303)
(0.0968570113182068 0.17498205602169 0.0399999991059303)
(0.169029399752617 0.106906786561012 0.0399999991059303)
(0.107624433934689 0.16857336461544 0.0399999991059303)
(0.162003085017204 0.117281720042229 0.0399999991059303)
(0.117969408631325 0.161503002047539 0.0399999991059303)
(0.154340848326683 0.127196297049522 0.0399999991059303)
(0.127851322293282 0.153798684477806 0.0399999991059303)
(0.146072819828987 0.136611610651016 0.0399999991059303)
(0.137231394648552 0.145490691065788 0.0399999991059303)
(-0.0742436423897743 0.18570913374424 0)
(-0.0857449695467949 0.1806870251894 0)
(-0.0969086736440659 0.174953445792198 0)
(-0.107690796256065 0.168530985713005 0)
(-0.118048876523972 0.161444917321205 0)
(-0.127942129969597 0.153723165392876 0)
(-0.137331619858742 0.14539609849453 0)
(-0.146180346608162 0.136496558785439 0)
(-0.154453471302986 0.127059534192085 0)
(-0.162118434906006 0.117122210562229 0)
(-0.169145047664642 0.106723710894585 0)
(-0.175505667924881 0.0959049761295319 0)
(-0.18117518723011 0.0847086161375046 0)
(-0.186131343245506 0.0731787085533142 0)
(-0.190354585647583 0.0613606609404087 0)
(-0.19382831454277 0.0493010021746159 0)
(-0.196538805961609 0.0370472148060799 0)
(-0.198475435376167 0.0246475525200367 0)
(-0.199630558490753 0.0121508408337831 0)
(-0.199999615550041 -0.000393716880353168 0)
(-0.199581161141396 -0.0129367234185338 0)
(-0.19837686419487 -0.0254287905991077 0)
(-0.196391418576241 -0.0378207303583622 0)
(-0.193632692098618 -0.0500637516379356 0)
(-0.19011153280735 -0.0621096417307854 0)
(-0.185841783881187 -0.0739109739661217 0)
(-0.180840268731117 -0.0854212716221809 0)
(-0.175126701593399 -0.0965952277183533 0)
(-0.168723553419113 -0.107388831675053 0)
(-0.161656051874161 -0.117759585380554 0)
(-0.153952032327652 -0.127666652202606 0)
(-0.145641803741455 -0.137071028351784 0)
(-0.136758103966713 -0.14593568444252 0)
(-0.127335906028748 -0.154225692152977 0)
(-0.117412321269512 -0.161908447742462 0)
(-0.107026427984238 -0.16895367205143 0)
(-0.0962191075086594 -0.175333634018898 0)
(-0.0850329101085663 -0.181023210287094 0)
(0.0850516706705093 -0.181014403700829 0)
(0.0962554290890694 -0.175313696265221 0)
(0.107078939676285 -0.168920397758484 0)
(0.117479413747787 -0.161859765648842 0)
(0.127415791153908 -0.154159709811211 0)
(0.1368488073349 -0.145850628614426 0)
(0.145741179585457 -0.136965364217758 0)
(0.154057785868645 -0.12753900885582 0)
(0.161765798926353 -0.117608785629272 0)
(0.17523667216301 -0.0963955670595169 0)
(0.16883473098278 -0.107213959097862 0)
(0.180946335196495 -0.0851963683962822 0)
(0.185941159725189 -0.0736605897545815 0)
(0.190201416611671 -0.0618338137865067 0)
(0.193710267543793 -0.0497627556324005 0)
(0.196453854441643 -0.0374951101839542 0)
(0.198421344161034 -0.0250793378800154 0)
(0.199604943394661 -0.0125644877552986 0)
(0.200000002980232 -4.89999990395467e-17 0)
(0.199607476592064 0.0125241596251726 0)
(0.198431462049484 0.0249991584569216 0)
(0.196476548910141 0.0373760312795639 0)
(0.19375042617321 0.0496061928570271 0)
(0.190263777971268 0.0616416409611702 0)
(0.0742253661155701 0.185716435313225 0)
(0.186030313372612 0.0734351351857185 0)
(0.181066647171974 0.0849403738975525 0)
(0.175392255187035 0.0961122065782547 0)
(0.0857094004750252 0.180703908205032 0)
(0.0968570113182068 0.17498205602169 0)
(0.107624433934689 0.16857336461544 0)
(0.117969408631325 0.161503002047539 0)
(0.162003085017204 0.117281720042229 0)
(0.169029399752617 0.106906786561012 0)
(0.154340848326683 0.127196297049522 0)
(0.146072819828987 0.136611610651016 0)
(0.137231394648552 0.145490691065788 0)
(0.127851322293282 0.153798684477806 0)
)


// edges:

188
(
(0 1)
(1 2)
(2 3)
(3 0)
(12 13)
(14 12)
(13 15)
(15 14)
(21 20)
(20 22)
(23 21)
(22 23)
(24 25)
(25 26)
(26 27)
(27 28)
(28 29)
(29 30)
(30 31)
(31 32)
(32 33)
(33 34)
(34 35)
(35 36)
(36 37)
(37 38)
(38 39)
(39 40)
(40 41)
(41 42)
(42 1)
(43 44)
(44 45)
(45 46)
(46 47)
(47 48)
(48 49)
(49 24)
(50 43)
(51 50)
(52 51)
(53 52)
(54 53)
(55 54)
(56 55)
(0 57)
(57 58)
(58 59)
(59 60)
(60 61)
(62 56)
(63 62)
(64 63)
(61 65)
(65 66)
(66 67)
(67 68)
(68 69)
(69 70)
(71 64)
(70 72)
(73 71)
(72 74)
(17 73)
(74 75)
(75 76)
(76 77)
(77 78)
(78 79)
(79 80)
(80 81)
(81 82)
(82 83)
(83 84)
(84 85)
(85 86)
(87 16)
(86 88)
(89 87)
(88 90)
(91 89)
(90 92)
(93 91)
(92 94)
(95 93)
(94 96)
(97 95)
(96 98)
(99 97)
(98 99)
(18 100)
(100 101)
(101 102)
(102 103)
(103 104)
(104 105)
(105 106)
(106 107)
(107 108)
(108 109)
(109 110)
(110 111)
(111 112)
(112 113)
(113 114)
(114 115)
(115 116)
(116 117)
(117 118)
(118 119)
(119 120)
(120 121)
(121 122)
(122 123)
(123 124)
(124 125)
(125 126)
(126 127)
(127 128)
(128 129)
(129 130)
(130 131)
(131 132)
(132 133)
(133 134)
(134 135)
(135 136)
(136 137)
(137 2)
(138 3)
(139 138)
(140 139)
(141 140)
(142 141)
(143 142)
(144 143)
(145 144)
(146 145)
(147 148)
(149 147)
(150 149)
(151 150)
(152 151)
(153 152)
(154 153)
(155 154)
(148 146)
(156 155)
(157 156)
(158 157)
(159 158)
(160 159)
(161 160)
(19 162)
(163 161)
(164 163)
(165 164)
(166 167)
(162 166)
(168 169)
(167 168)
(170 171)
(172 170)
(173 172)
(171 165)
(174 173)
(175 174)
(169 175)
(16 17)
(17 18)
(18 19)
(19 16)
(4 12)
(5 4)
(13 5)
(4 6)
(6 14)
(5 7)
(7 6)
(15 7)
(8 23)
(9 8)
(22 9)
(8 10)
(10 21)
(9 11)
(11 10)
(11 20)
)

// * * * * * * * * * * * * * * * * * * * * * * * * * * * * * * * * * * * * * //


// ************************************************************************* //
