/*--------------------------------*- C++ -*----------------------------------*\
| =========                 |                                                 |
| \\      /  F ield         | OpenFOAM                                       |
|  \\    /   O peration     | Version:  v2312                               |
|   \\  /    A nd           | Website:  www.openfoam.com                    |
|    \\/     M anipulation  |                                               |
\*---------------------------------------------------------------------------*/
FoamFile
{
    version     2.0;
    format      ascii;
    class       volVectorField;
    location    "0";
    object      F;
}
// * * * * * * * * * * * * * * * * * * * * * * * * * * * * * * * * * * * * * //

dimensions      [0 1 -2 0 0 0 0]; // TODO I just made it into acceleration, maybe should be fixed later

internalField   nonuniform List<vector>
39144                                   // Number of cells
(
    
        (1.8413024477557227 -0.7675528427064173 0.0)
    
        (1.8450124477557228 -0.7225928427064174 0.0)
    
        (1.8460524477557227 -0.6745348427064174 0.0)
    
        (1.8459324477557226 -0.6247268427064174 0.0)
    
        (1.8458724477557227 -0.5747488427064174 0.0)
    
        (1.845842447755723 -0.5247588427064174 0.0)
    
        (1.845842447755723 -0.4747628427064174 0.0)
    
        (1.8458324477557229 -0.42476384270641737 0.0)
    
        (1.8458324477557229 -0.37476484270641736 0.0)
    
        (1.8458324477557229 -0.32476484270641737 0.0)
    
        (1.8458324477557229 -0.2747648427064173 0.0)
    
        (1.8458324477557229 -0.22476484270641733 0.0)
    
        (1.8458324477557229 -0.17476484270641732 0.0)
    
        (1.8458324477557229 -0.12476484270641734 0.0)
    
        (1.8458324477557229 -0.07476484270641734 0.0)
    
        (1.8458324477557229 -0.02476484270641733 0.0)
    
        (1.8458324477557229 0.025235057293582667 0.0)
    
        (1.8458324477557229 0.07523505729358267 0.0)
    
        (1.8458324477557229 0.12523515729358264 0.0)
    
        (1.8458324477557229 0.1752351572935827 0.0)
    
        (1.8458324477557229 0.22523515729358268 0.0)
    
        (1.8458324477557229 0.27523515729358267 0.0)
    
        (1.8458324477557229 0.32523515729358266 0.0)
    
        (1.8458324477557229 0.3752351572935826 0.0)
    
        (1.8458324477557229 0.4252341572935826 0.0)
    
        (1.845842447755723 0.4752331572935826 0.0)
    
        (1.845842447755723 0.5252311572935826 0.0)
    
        (1.8458724477557227 0.5752261572935826 0.0)
    
        (1.8459324477557226 0.6252161572935827 0.0)
    
        (1.8460524477557227 0.6750571572935826 0.0)
    
        (1.8450624477557227 0.7232231572935827 0.0)
    
        (1.8415224477557226 0.7684881572935827 0.0)
    
        (1.7933024477557227 -0.8719198427064173 0.0)
    
        (1.8015524477557228 -0.8274178427064173 0.0)
    
        (1.8042124477557229 -0.7790838427064174 0.0)
    
        (1.8000924477557225 -0.7252518427064174 0.0)
    
        (1.7994624477557228 -0.6749698427064175 0.0)
    
        (1.7990924477557226 -0.6248408427064174 0.0)
    
        (1.7989124477557228 -0.5747868427064173 0.0)
    
        (1.7988524477557228 -0.5247708427064174 0.0)
    
        (1.7988224477557226 -0.4747658427064173 0.0)
    
        (1.7988124477557226 -0.42476484270641734 0.0)
    
        (1.7988124477557226 -0.37476484270641736 0.0)
    
        (1.7988124477557226 -0.32476484270641737 0.0)
    
        (1.7988124477557226 -0.2747648427064173 0.0)
    
        (1.7988124477557226 -0.22476484270641733 0.0)
    
        (1.7988124477557226 -0.17476484270641732 0.0)
    
        (1.7988124477557226 -0.12476484270641734 0.0)
    
        (1.7988124477557226 -0.07476484270641734 0.0)
    
        (1.7988124477557226 -0.02476484270641733 0.0)
    
        (1.7988124477557226 0.025235057293582667 0.0)
    
        (1.7988124477557226 0.07523505729358267 0.0)
    
        (1.7988124477557226 0.12523515729358264 0.0)
    
        (1.7988124477557226 0.1752351572935827 0.0)
    
        (1.7988124477557226 0.22523515729358268 0.0)
    
        (1.7988124477557226 0.27523515729358267 0.0)
    
        (1.7988124477557226 0.32523515729358266 0.0)
    
        (1.7988124477557226 0.3752351572935826 0.0)
    
        (1.7988124477557226 0.4252361572935826 0.0)
    
        (1.7988224477557226 0.47523815729358265 0.0)
    
        (1.7988524477557228 0.5252461572935827 0.0)
    
        (1.7989224477557229 0.5752711572935827 0.0)
    
        (1.7991024477557227 0.6253481572935826 0.0)
    
        (1.7994924477557228 0.6755341572935826 0.0)
    
        (1.8001824477557227 0.7259451572935827 0.0)
    
        (1.8044724477557228 0.7800551572935827 0.0)
    
        (1.8016024477557226 0.8281681572935827 0.0)
    
        (1.7933424477557227 0.8725751572935826 0.0)
    
        (1.7420824477557226 -0.9709448427064173 0.0)
    
        (1.7519424477557228 -0.9281268427064173 0.0)
    
        (1.7553124477557227 -0.8810098427064174 0.0)
    
        (1.7515324477557226 -0.8274378427064173 0.0)
    
        (1.7508724477557227 -0.7766498427064173 0.0)
    
        (1.7497224477557227 -0.7256638427064173 0.0)
    
        (1.7489324477557227 -0.6751388427064174 0.0)
    
        (1.7485124477557226 -0.6249078427064174 0.0)
    
        (1.7483024477557227 -0.5748138427064173 0.0)
    
        (1.7482224477557227 -0.5247808427064173 0.0)
    
        (1.7481924477557227 -0.47476984270641737 0.0)
    
        (1.7481724477557226 -0.4247658427064174 0.0)
    
        (1.7481724477557226 -0.37476484270641736 0.0)
    
        (1.7481724477557226 -0.32476484270641737 0.0)
    
        (1.7481724477557226 -0.2747648427064173 0.0)
    
        (1.7481724477557226 -0.22476484270641733 0.0)
    
        (1.7481724477557226 -0.17476484270641732 0.0)
    
        (1.7481724477557226 -0.12476484270641734 0.0)
    
        (1.7481724477557226 -0.07476484270641734 0.0)
    
        (1.7481724477557226 -0.02476484270641733 0.0)
    
        (1.7481724477557226 0.025235057293582667 0.0)
    
        (1.7481724477557226 0.07523505729358267 0.0)
    
        (1.7481724477557226 0.12523515729358264 0.0)
    
        (1.7481724477557226 0.1752351572935827 0.0)
    
        (1.7481724477557226 0.22523515729358268 0.0)
    
        (1.7481724477557226 0.27523515729358267 0.0)
    
        (1.7481724477557226 0.32523515729358266 0.0)
    
        (1.7481724477557226 0.3752351572935826 0.0)
    
        (1.7481724477557226 0.42523715729358263 0.0)
    
        (1.7481924477557227 0.47524215729358266 0.0)
    
        (1.7482224477557227 0.5252561572935827 0.0)
    
        (1.7483124477557226 0.5752981572935827 0.0)
    
        (1.7485224477557226 0.6254141572935825 0.0)
    
        (1.7489624477557228 0.6756891572935826 0.0)
    
        (1.749782447755723 0.7262931572935827 0.0)
    
        (1.7509824477557225 0.7773781572935827 0.0)
    
        (1.7516324477557226 0.8281461572935827 0.0)
    
        (1.7555324477557228 0.8817811572935828 0.0)
    
        (1.7521524477557227 0.9288171572935826 0.0)
    
        (1.7423024477557227 0.9715611572935827 0.0)
    
        (1.7044124477557228 -1.0279868427064174 0.0)
    
        (1.7057124477557226 -0.9809648427064173 0.0)
    
        (1.7024624477557226 -0.9283848427064173 0.0)
    
        (1.7017524477557227 -0.8778988427064173 0.0)
    
        (1.7004524477557226 -0.8269468427064174 0.0)
    
        (1.6993724477557226 -0.7761388427064174 0.0)
    
        (1.6984624477557229 -0.7254828427064174 0.0)
    
        (1.6978624477557227 -0.6750898427064174 0.0)
    
        (1.6975324477557228 -0.6248958427064173 0.0)
    
        (1.6973724477557228 -0.5748138427064173 0.0)
    
        (1.6973024477557228 -0.5247818427064174 0.0)
    
        (1.6972724477557226 -0.47477084270641734 0.0)
    
        (1.6972624477557228 -0.4247668427064174 0.0)
    
        (1.6972624477557228 -0.3747658427064174 0.0)
    
        (1.6972524477557227 -0.32476484270641737 0.0)
    
        (1.6972524477557227 -0.2747648427064173 0.0)
    
        (1.6972524477557227 -0.22476484270641733 0.0)
    
        (1.6972524477557227 -0.17476484270641732 0.0)
    
        (1.6972524477557227 -0.12476484270641734 0.0)
    
        (1.6972524477557227 -0.07476484270641734 0.0)
    
        (1.6972524477557227 -0.02476484270641733 0.0)
    
        (1.6972524477557227 0.025235057293582667 0.0)
    
        (1.6972524477557227 0.07523505729358267 0.0)
    
        (1.6972524477557227 0.12523515729358264 0.0)
    
        (1.6972524477557227 0.1752351572935827 0.0)
    
        (1.6972524477557227 0.22523515729358268 0.0)
    
        (1.6972524477557227 0.27523515729358267 0.0)
    
        (1.6972524477557227 0.32523515729358266 0.0)
    
        (1.6972624477557228 0.3752361572935826 0.0)
    
        (1.6972624477557228 0.42523715729358263 0.0)
    
        (1.6972724477557226 0.47524215729358266 0.0)
    
        (1.6973024477557228 0.5252561572935827 0.0)
    
        (1.6973724477557228 0.5752941572935826 0.0)
    
        (1.6975424477557226 0.6253911572935826 0.0)
    
        (1.6978824477557228 0.6756111572935826 0.0)
    
        (1.6985024477557227 0.7260441572935826 0.0)
    
        (1.6994324477557226 0.7767411572935827 0.0)
    
        (1.7005324477557227 0.8275581572935826 0.0)
    
        (1.7018824477557226 0.8785111572935826 0.0)
    
        (1.7026424477557227 0.9289401572935827 0.0)
    
        (1.7060324477557227 0.9814461572935826 0.0)
    
        (1.7047124477557227 1.0281331572935828 0.0)
    
        (1.6457424477557228 -1.1247768427064173 0.0)
    
        (1.6580624477557226 -1.0833168427064175 0.0)
    
        (1.6617024477557227 -1.0360468427064173 0.0)
    
        (1.6545724477557227 -0.9799978427064173 0.0)
    
        (1.6519924477557226 -0.9281698427064173 0.0)
    
        (1.6503424477557227 -0.8770418427064174 0.0)
    
        (1.6491124477557226 -0.8262118427064173 0.0)
    
        (1.6482524477557228 -0.7756258427064173 0.0)
    
        (1.6476524477557228 -0.7252198427064173 0.0)
    
        (1.6472724477557228 -0.6749788427064174 0.0)
    
        (1.6470624477557227 -0.6248558427064175 0.0)
    
        (1.6469624477557225 -0.5748008427064174 0.0)
    
        (1.6469124477557227 -0.5247788427064173 0.0)
    
        (1.6468924477557225 -0.47476984270641737 0.0)
    
        (1.6468924477557225 -0.4247668427064174 0.0)
    
        (1.6468924477557225 -0.3747658427064174 0.0)
    
        (1.6468824477557225 -0.32476484270641737 0.0)
    
        (1.6468824477557225 -0.2747648427064173 0.0)
    
        (1.6468824477557225 -0.22476484270641733 0.0)
    
        (1.6468824477557225 -0.17476484270641732 0.0)
    
        (1.6468824477557225 -0.12476484270641734 0.0)
    
        (1.6468824477557225 -0.07476484270641734 0.0)
    
        (1.6468824477557225 -0.02476484270641733 0.0)
    
        (1.6468824477557225 0.025235057293582667 0.0)
    
        (1.6468824477557225 0.07523505729358267 0.0)
    
        (1.6468824477557225 0.12523515729358264 0.0)
    
        (1.6468824477557225 0.1752351572935827 0.0)
    
        (1.6468824477557225 0.22523515729358268 0.0)
    
        (1.6468824477557225 0.27523515729358267 0.0)
    
        (1.6468824477557225 0.32523515729358266 0.0)
    
        (1.6468924477557225 0.3752361572935826 0.0)
    
        (1.6468924477557225 0.42523715729358263 0.0)
    
        (1.6469024477557226 0.4752411572935827 0.0)
    
        (1.6469124477557227 0.5252511572935826 0.0)
    
        (1.6469624477557225 0.5752771572935826 0.0)
    
        (1.6470724477557228 0.6253401572935826 0.0)
    
        (1.6472824477557226 0.6754761572935826 0.0)
    
        (1.6476724477557227 0.7257351572935826 0.0)
    
        (1.6482924477557226 0.7761581572935826 0.0)
    
        (1.6491724477557226 0.8267471572935826 0.0)
    
        (1.6504324477557228 0.8775611572935826 0.0)
    
        (1.6521324477557229 0.9286291572935825 0.0)
    
        (1.6548024477557228 0.9803281572935827 0.0)
    
        (1.6619624477557227 1.0360631572935826 0.0)
    
        (1.6586724477557226 1.0834331572935827 0.0)
    
        (1.6465324477557228 1.1248931572935825 0.0)
    
        (1.6032424477557228 -1.1785968427064173 0.0)
    
        (1.6071924477557227 -1.1331268427064174 0.0)
    
        (1.6053524477557226 -1.0810168427064173 0.0)
    
        (1.6048924477557227 -1.0304868427064173 0.0)
    
        (1.6025124477557227 -0.9786188427064174 0.0)
    
        (1.6005124477557229 -0.9271588427064172 0.0)
    
        (1.5991724477557225 -0.8762198427064173 0.0)
    
        (1.5982924477557228 -0.8256208427064173 0.0)
    
        (1.5977324477557229 -0.7752478427064173 0.0)
    
        (1.5973724477557227 -0.7250178427064173 0.0)
    
        (1.5971724477557228 -0.6748868427064174 0.0)
    
        (1.5970524477557226 -0.6248188427064173 0.0)
    
        (1.5970024477557225 -0.5747878427064174 0.0)
    
        (1.5969724477557226 -0.5247738427064174 0.0)
    
        (1.5969624477557227 -0.47476884270641734 0.0)
    
        (1.5969624477557227 -0.4247668427064174 0.0)
    
        (1.5969524477557226 -0.3747658427064174 0.0)
    
        (1.5969524477557226 -0.32476484270641737 0.0)
    
        (1.5969524477557226 -0.2747648427064173 0.0)
    
        (1.5969524477557226 -0.22476484270641733 0.0)
    
        (1.5969524477557226 -0.17476484270641732 0.0)
    
        (1.5969524477557226 -0.12476484270641734 0.0)
    
        (1.5969524477557226 -0.07476484270641734 0.0)
    
        (1.5969524477557226 -0.02476484270641733 0.0)
    
        (1.5969524477557226 0.025235057293582667 0.0)
    
        (1.5969524477557226 0.07523505729358267 0.0)
    
        (1.5969524477557226 0.12523515729358264 0.0)
    
        (1.5969524477557226 0.1752351572935827 0.0)
    
        (1.5969524477557226 0.22523515729358268 0.0)
    
        (1.5969524477557226 0.27523515729358267 0.0)
    
        (1.5969524477557226 0.32523515729358266 0.0)
    
        (1.5969624477557227 0.3752361572935826 0.0)
    
        (1.5969624477557227 0.42523715729358263 0.0)
    
        (1.5969624477557227 0.4752391572935826 0.0)
    
        (1.5969724477557226 0.5252461572935827 0.0)
    
        (1.5970024477557225 0.5752611572935826 0.0)
    
        (1.5970624477557227 0.6252961572935827 0.0)
    
        (1.5971724477557228 0.6753691572935826 0.0)
    
        (1.5973924477557229 0.7255081572935826 0.0)
    
        (1.5977524477557226 0.7757451572935826 0.0)
    
        (1.5983224477557225 0.8261171572935827 0.0)
    
        (1.5992324477557227 0.8767021572935827 0.0)
    
        (1.6006324477557228 0.9276051572935827 0.0)
    
        (1.6027424477557228 0.9790051572935826 0.0)
    
        (1.6053124477557226 1.0308031572935825 0.0)
    
        (1.6061324477557226 1.0814331572935827 0.0)
    
        (1.6083124477557225 1.1335831572935826 0.0)
    
        (1.6045724477557228 1.1788431572935827 0.0)
    
        (1.5380024477557228 -1.2690168427064175 0.0)
    
        (1.5532024477557227 -1.2302768427064172 0.0)
    
        (1.5592924477557226 -1.1849468427064174 0.0)
    
        (1.5546524477557226 -1.1304868427064174 0.0)
    
        (1.5533224477557228 -1.0793168427064173 0.0)
    
        (1.5520624477557226 -1.0282568427064174 0.0)
    
        (1.5505724477557226 -0.9771048427064173 0.0)
    
        (1.5493424477557227 -0.9261918427064174 0.0)
    
        (1.5484924477557227 -0.8755918427064173 0.0)
    
        (1.5479724477557228 -0.8252278427064174 0.0)
    
        (1.5476524477557227 -0.7750158427064173 0.0)
    
        (1.5474624477557228 -0.7248948427064174 0.0)
    
        (1.5473624477557226 -0.6748288427064174 0.0)
    
        (1.5473024477557227 -0.6247948427064174 0.0)
    
        (1.5472824477557225 -0.5747778427064174 0.0)
    
        (1.5472624477557226 -0.5247708427064174 0.0)
    
        (1.5472624477557226 -0.47476784270641736 0.0)
    
        (1.5472624477557226 -0.4247658427064174 0.0)
    
        (1.5472524477557226 -0.37476484270641736 0.0)
    
        (1.5472524477557226 -0.32476484270641737 0.0)
    
        (1.5472524477557226 -0.2747648427064173 0.0)
    
        (1.5472524477557226 -0.22476484270641733 0.0)
    
        (1.5472524477557226 -0.17476484270641732 0.0)
    
        (1.5472524477557226 -0.12476484270641734 0.0)
    
        (1.5472524477557226 -0.07476484270641734 0.0)
    
        (1.5472524477557226 -0.02476484270641733 0.0)
    
        (1.5472524477557226 0.025235057293582667 0.0)
    
        (1.5472524477557226 0.07523505729358267 0.0)
    
        (1.5472524477557226 0.12523515729358264 0.0)
    
        (1.5472524477557226 0.1752351572935827 0.0)
    
        (1.5472524477557226 0.22523515729358268 0.0)
    
        (1.5472524477557226 0.27523515729358267 0.0)
    
        (1.5472524477557226 0.32523515729358266 0.0)
    
        (1.5472524477557226 0.3752351572935826 0.0)
    
        (1.5472624477557226 0.4252361572935826 0.0)
    
        (1.5472624477557226 0.47523815729358265 0.0)
    
        (1.5472624477557226 0.5252421572935827 0.0)
    
        (1.5472824477557225 0.5752501572935826 0.0)
    
        (1.5473124477557225 0.6252681572935826 0.0)
    
        (1.5473624477557226 0.6753041572935826 0.0)
    
        (1.5474724477557227 0.7253731572935826 0.0)
    
        (1.5476624477557226 0.7754971572935826 0.0)
    
        (1.5479924477557228 0.8257091572935826 0.0)
    
        (1.5485424477557228 0.8760681572935826 0.0)
    
        (1.5494524477557228 0.9266641572935828 0.0)
    
        (1.5508124477557228 0.9775911572935826 0.0)
    
        (1.5525824477557226 1.0288431572935826 0.0)
    
        (1.5544024477557228 1.0802131572935827 0.0)
    
        (1.5567224477557227 1.1320531572935826 0.0)
    
        (1.5624624477557227 1.1869731572935827 0.0)
    
        (1.5599524477557227 1.2342131572935826 0.0)
    
        (1.4923624477557227 -1.3190268427064171 0.0)
    
        (1.4999624477557227 -1.2771168427064172 0.0)
    
        (1.5015024477557226 -1.2280368427064174 0.0)
    
        (1.5031224477557226 -1.1791868427064174 0.0)
    
        (1.5023324477557227 -1.1284268427064172 0.0)
    
        (1.5012524477557228 -1.0775068427064174 0.0)
    
        (1.5002924477557227 -1.0267068427064172 0.0)
    
        (1.4994124477557227 -0.9760278427064173 0.0)
    
        (1.4987424477557227 -0.9255208427064174 0.0)
    
        (1.4982824477557228 -0.8751918427064174 0.0)
    
        (1.4980024477557228 -0.8249968427064174 0.0)
    
        (1.4978424477557226 -0.7748878427064174 0.0)
    
        (1.4977624477557228 -0.7248288427064175 0.0)
    
        (1.4977124477557227 -0.6747968427064173 0.0)
    
        (1.4976824477557227 -0.6247808427064173 0.0)
    
        (1.4976724477557226 -0.5747728427064174 0.0)
    
        (1.4976624477557228 -0.5247688427064173 0.0)
    
        (1.4976624477557228 -0.47476684270641734 0.0)
    
        (1.4976624477557228 -0.4247658427064174 0.0)
    
        (1.4976624477557228 -0.37476484270641736 0.0)
    
        (1.4976624477557228 -0.32476484270641737 0.0)
    
        (1.4976624477557228 -0.2747648427064173 0.0)
    
        (1.4976624477557228 -0.22476484270641733 0.0)
    
        (1.4976624477557228 -0.17476484270641732 0.0)
    
        (1.4976624477557228 -0.12476484270641734 0.0)
    
        (1.4976624477557228 -0.07476484270641734 0.0)
    
        (1.4976624477557228 -0.02476484270641733 0.0)
    
        (1.4976624477557228 0.025235057293582667 0.0)
    
        (1.4976624477557228 0.07523505729358267 0.0)
    
        (1.4976624477557228 0.12523515729358264 0.0)
    
        (1.4976624477557228 0.1752351572935827 0.0)
    
        (1.4976624477557228 0.22523515729358268 0.0)
    
        (1.4976624477557228 0.27523515729358267 0.0)
    
        (1.4976624477557228 0.32523515729358266 0.0)
    
        (1.4976624477557228 0.3752351572935826 0.0)
    
        (1.4976624477557228 0.4252361572935826 0.0)
    
        (1.4976624477557228 0.4752371572935826 0.0)
    
        (1.4976624477557228 0.5252391572935826 0.0)
    
        (1.4976724477557226 0.5752431572935826 0.0)
    
        (1.4976824477557227 0.6252521572935826 0.0)
    
        (1.4977124477557227 0.6752701572935826 0.0)
    
        (1.4977624477557228 0.7253021572935826 0.0)
    
        (1.4978524477557227 0.7753631572935826 0.0)
    
        (1.4980224477557227 0.8254741572935826 0.0)
    
        (1.4983224477557227 0.8756721572935826 0.0)
    
        (1.4988324477557227 0.9260161572935827 0.0)
    
        (1.4996424477557226 0.9765811572935825 0.0)
    
        (1.5008024477557227 1.0274431572935827 0.0)
    
        (1.5024024477557227 1.0786831572935827 0.0)
    
        (1.5047224477557228 1.1305731572935827 0.0)
    
        (1.5078624477557225 1.1832631572935828 0.0)
    
        (1.5139424477557226 1.2392631572935826 0.0)
    
        (1.5079224477557227 1.2848331572935825 0.0)
    
        (1.4921124477557226 1.3229031572935825 0.0)
    
        (1.444272447755723 -1.3704368427064173 0.0)
    
        (1.4514324477557228 -1.3276468427064172 0.0)
    
        (1.4502324477557227 -1.2765568427064173 0.0)
    
        (1.4508824477557227 -1.2270868427064172 0.0)
    
        (1.4510624477557226 -1.1771668427064172 0.0)
    
        (1.4505924477557228 -1.1267368427064175 0.0)
    
        (1.4499624477557227 -1.0762068427064173 0.0)
    
        (1.4494024477557228 -1.0257468427064174 0.0)
    
        (1.448942447755723 -0.9753848427064173 0.0)
    
        (1.4486124477557227 -0.9251298427064174 0.0)
    
        (1.4483924477557228 -0.8749688427064174 0.0)
    
        (1.4482624477557227 -0.8248748427064173 0.0)
    
        (1.4481924477557226 -0.7748238427064174 0.0)
    
        (1.4481424477557228 -0.7247958427064173 0.0)
    
        (1.4481224477557229 -0.6747818427064174 0.0)
    
        (1.4481124477557228 -0.6247738427064174 0.0)
    
        (1.4481024477557227 -0.5747698427064173 0.0)
    
        (1.4481024477557227 -0.5247668427064174 0.0)
    
        (1.4481024477557227 -0.4747658427064173 0.0)
    
        (1.4481024477557227 -0.42476484270641734 0.0)
    
        (1.4481024477557227 -0.37476484270641736 0.0)
    
        (1.4481024477557227 -0.32476484270641737 0.0)
    
        (1.4481024477557227 -0.2747648427064173 0.0)
    
        (1.4481024477557227 -0.22476484270641733 0.0)
    
        (1.4481024477557227 -0.17476484270641732 0.0)
    
        (1.4481024477557227 -0.12476484270641734 0.0)
    
        (1.4481024477557227 -0.07476484270641734 0.0)
    
        (1.4481024477557227 -0.02476484270641733 0.0)
    
        (1.4481024477557227 0.025235057293582667 0.0)
    
        (1.4481024477557227 0.07523505729358267 0.0)
    
        (1.4481024477557227 0.12523515729358264 0.0)
    
        (1.4481024477557227 0.1752351572935827 0.0)
    
        (1.4481024477557227 0.22523515729358268 0.0)
    
        (1.4481024477557227 0.27523515729358267 0.0)
    
        (1.4481024477557227 0.32523515729358266 0.0)
    
        (1.4481024477557227 0.3752351572935826 0.0)
    
        (1.4481024477557227 0.42523515729358263 0.0)
    
        (1.4481024477557227 0.47523615729358265 0.0)
    
        (1.4481024477557227 0.5252371572935827 0.0)
    
        (1.4481024477557227 0.5752401572935827 0.0)
    
        (1.4481124477557228 0.6252441572935827 0.0)
    
        (1.4481224477557229 0.6752531572935827 0.0)
    
        (1.4481524477557228 0.7252681572935826 0.0)
    
        (1.4481924477557226 0.7752971572935827 0.0)
    
        (1.4482724477557227 0.8253511572935825 0.0)
    
        (1.4484224477557228 0.8754511572935826 0.0)
    
        (1.4486824477557227 0.9256341572935827 0.0)
    
        (1.4491224477557227 0.9759511572935826 0.0)
    
        (1.4498124477557228 1.0264731572935828 0.0)
    
        (1.4508724477557227 1.0773231572935826 0.0)
    
        (1.4524124477557225 1.1286131572935827 0.0)
    
        (1.4543424477557227 1.1803131572935825 0.0)
    
        (1.4558424477557228 1.2318331572935828 0.0)
    
        (1.4543724477557227 1.2809231572935826 0.0)
    
        (1.4527224477557228 1.3299531572935828 0.0)
    
        (1.4444524477557228 1.3715331572935827 0.0)
    
        (1.3947024477557226 -1.4208468427064176 0.0)
    
        (1.4021324477557227 -1.3782168427064172 0.0)
    
        (1.4007124477557227 -1.3266968427064174 0.0)
    
        (1.4004824477557225 -1.2764668427064174 0.0)
    
        (1.4002624477557226 -1.2262168427064175 0.0)
    
        (1.4000624477557229 -1.1760068427064174 0.0)
    
        (1.3997524477557226 -1.1257268427064173 0.0)
    
        (1.3994324477557227 -1.0754468427064174 0.0)
    
        (1.3991524477557227 -1.0252168427064174 0.0)
    
        (1.3989324477557228 -0.9750458427064174 0.0)
    
        (1.3987824477557225 -0.9249298427064173 0.0)
    
        (1.3986824477557227 -0.8748578427064174 0.0)
    
        (1.3986324477557228 -0.8248168427064173 0.0)
    
        (1.3985924477557226 -0.7747938427064173 0.0)
    
        (1.3985824477557227 -0.7247808427064173 0.0)
    
        (1.3985724477557226 -0.6747738427064174 0.0)
    
        (1.3985624477557226 -0.6247698427064173 0.0)
    
        (1.3985624477557226 -0.5747678427064173 0.0)
    
        (1.3985624477557226 -0.5247658427064174 0.0)
    
        (1.3985524477557227 -0.4747658427064173 0.0)
    
        (1.3985524477557227 -0.42476484270641734 0.0)
    
        (1.3985524477557227 -0.37476484270641736 0.0)
    
        (1.3985524477557227 -0.32476484270641737 0.0)
    
        (1.3985524477557227 -0.2747648427064173 0.0)
    
        (1.3985524477557227 -0.22476484270641733 0.0)
    
        (1.3985524477557227 -0.17476484270641732 0.0)
    
        (1.3985524477557227 -0.12476484270641734 0.0)
    
        (1.3985524477557227 -0.07476484270641734 0.0)
    
        (1.3985524477557227 -0.02476484270641733 0.0)
    
        (1.3985524477557227 0.025235057293582667 0.0)
    
        (1.3985524477557227 0.07523505729358267 0.0)
    
        (1.3985524477557227 0.12523515729358264 0.0)
    
        (1.3985524477557227 0.1752351572935827 0.0)
    
        (1.3985524477557227 0.22523515729358268 0.0)
    
        (1.3985524477557227 0.27523515729358267 0.0)
    
        (1.3985524477557227 0.32523515729358266 0.0)
    
        (1.3985524477557227 0.3752351572935826 0.0)
    
        (1.3985524477557227 0.42523515729358263 0.0)
    
        (1.3985524477557227 0.47523615729358265 0.0)
    
        (1.3985624477557226 0.5252361572935826 0.0)
    
        (1.3985624477557226 0.5752381572935826 0.0)
    
        (1.3985624477557226 0.6252401572935827 0.0)
    
        (1.3985724477557226 0.6752451572935826 0.0)
    
        (1.3985824477557227 0.7252521572935826 0.0)
    
        (1.3986024477557226 0.7752661572935826 0.0)
    
        (1.3986424477557227 0.8252921572935825 0.0)
    
        (1.3987024477557228 0.8753401572935826 0.0)
    
        (1.3988324477557226 0.9254291572935825 0.0)
    
        (1.3990524477557225 0.9755921572935826 0.0)
    
        (1.3994124477557226 1.0258831572935827 0.0)
    
        (1.4000024477557227 1.0763531572935827 0.0)
    
        (1.4008524477557227 1.1270831572935827 0.0)
    
        (1.4018724477557227 1.1779931572935827 0.0)
    
        (1.4026624477557226 1.2287831572935828 0.0)
    
        (1.4025724477557229 1.2788731572935828 0.0)
    
        (1.4018024477557227 1.3283331572935828 0.0)
    
        (1.4025424477557227 1.3792331572935825 0.0)
    
        (1.3947024477557226 1.4215331572935828 0.0)
    
        (1.3438224477557226 -1.4694868427064174 0.0)
    
        (1.3523424477557229 -1.4281568427064173 0.0)
    
        (1.3511524477557226 -1.3768768427064173 0.0)
    
        (1.3508424477557226 -1.3265068427064173 0.0)
    
        (1.3503324477557226 -1.2759768427064175 0.0)
    
        (1.3499724477557227 -1.2256068427064173 0.0)
    
        (1.3497424477557227 -1.1753768427064173 0.0)
    
        (1.3495524477557228 -1.1252068427064175 0.0)
    
        (1.3493924477557226 -1.0750668427064174 0.0)
    
        (1.3492724477557227 -1.0249568427064173 0.0)
    
        (1.3491824477557226 -0.9748858427064173 0.0)
    
        (1.3491124477557226 -0.9248368427064174 0.0)
    
        (1.3490724477557228 -0.8748068427064173 0.0)
    
        (1.3490524477557229 -0.8247898427064173 0.0)
    
        (1.3490324477557227 -0.7747788427064174 0.0)
    
        (1.3490324477557227 -0.7247728427064173 0.0)
    
        (1.3490224477557229 -0.6747698427064174 0.0)
    
        (1.3490224477557229 -0.6247678427064174 0.0)
    
        (1.3490224477557229 -0.5747668427064174 0.0)
    
        (1.3490224477557229 -0.5247658427064174 0.0)
    
        (1.3490124477557228 -0.4747648427064174 0.0)
    
        (1.3490124477557228 -0.42476484270641734 0.0)
    
        (1.3490124477557228 -0.37476484270641736 0.0)
    
        (1.3490124477557228 -0.32476484270641737 0.0)
    
        (1.3490124477557228 -0.2747648427064173 0.0)
    
        (1.3490124477557228 -0.22476484270641733 0.0)
    
        (1.3490124477557228 -0.17476484270641732 0.0)
    
        (1.3490124477557228 -0.12476484270641734 0.0)
    
        (1.3490124477557228 -0.07476484270641734 0.0)
    
        (1.3490124477557228 -0.02476484270641733 0.0)
    
        (1.3490124477557228 0.025235057293582667 0.0)
    
        (1.3490124477557228 0.07523505729358267 0.0)
    
        (1.3490124477557228 0.12523515729358264 0.0)
    
        (1.3490124477557228 0.1752351572935827 0.0)
    
        (1.3490124477557228 0.22523515729358268 0.0)
    
        (1.3490124477557228 0.27523515729358267 0.0)
    
        (1.3490124477557228 0.32523515729358266 0.0)
    
        (1.3490124477557228 0.3752351572935826 0.0)
    