/*--------------------------------*- C++ -*----------------------------------*\
| =========                 |                                                 |
| \\      /  F ield         | OpenFOAM                                       |
|  \\    /   O peration     | Version:  v2312                               |
|   \\  /    A nd           | Website:  www.openfoam.com                    |
|    \\/     M anipulation  |                                               |
\*---------------------------------------------------------------------------*/
FoamFile
{
    version     2.0;
    format      ascii;
    class       volVectorField;
    location    "0";
    object      F;
}
// * * * * * * * * * * * * * * * * * * * * * * * * * * * * * * * * * * * * * //

dimensions      [0 1 -2 0 0 0 0]; // TODO I just made it into acceleration, maybe should be fixed later

internalField   nonuniform List<vector>
{{nCells}}                                   // Number of cells
(
    {% for a in A %}
        ({{a[1]}} {{a[2]}} {{a[3]}})
    {% end %}
);

boundaryField
{
    walls
    {
        type            zeroGradient;
    }

    inlet
    {
        type            fixedValue;
        value           uniform 300;
    }

    outlet
    {
        type            zeroGradient;
    }
// WALLS
    fixedWalls {
        type zeroGradient;
    }
    frontAndBack {
        type empty;
    }

    coldEnd {
        type zeroGradient;
    }

    hotEnd {
        type zeroGradient;
    }
        // WALLS
    patch_0_0 {
        type zeroGradient;
    }
    patch_1_0 {
        type zeroGradient;
    }

    // INLET
    patch_2_0 {
        type zeroGradient;
    }

    // OUTLET
    patch_3_0 {
        type zeroGradient;
    }

    // HEATER
    patch_4_0 {
        type zeroGradient;

    }

    // COOLER {
    patch_5_0 {
        type zeroGradient;
    }
}

// ************************************************************************* //
